                               Psi4 1.2.1 release

  ==> Input File <==

--------------------------------------------------------------------------
molecule dvb {
    0 1
    C    -1.4152533224   0.2302217854   0.0000000000
    C     1.4152533224  -0.2302217854   0.0000000000
    C    -0.4951331558   1.3144608674   0.0000000000
    C     0.4951331558  -1.3144608674   0.0000000000
    C     0.8894090436   1.0909493743   0.0000000000
    C    -0.8894090436  -1.0909493743   0.0000000000
    H    -0.8795511985   2.3437343748   0.0000000000
    H     0.8795511985  -2.3437343748   0.0000000000
    H     1.5779041557   1.9450061275   0.0000000000
    H    -1.5779041557  -1.9450061275   0.0000000000
    C     2.8845844962  -0.5210893778   0.0000000000
    C    -2.8845844962   0.5210893778   0.0000000000
    H     3.1403356810  -1.5919605685   0.0000000000
    H    -3.1403356810   1.5919605685   0.0000000000
    C     3.8800428103   0.3822535424   0.0000000000
    C    -3.8800428103  -0.3822535424   0.0000000000
    H     3.6946765858   1.4624389570   0.0000000000
    H    -3.6946765858  -1.4624389570   0.0000000000
    H     4.9316453546   0.0711049543   0.0000000000
    H    -4.9316453546  -0.0711049543   0.0000000000
}

set {
    basis sto-3g
    fd_project true
}

frequencies('scf', dertype='gradient')
--------------------------------------------------------------------------

    Molecular point group: c2h
  Charge       = 0
  Multiplicity = 1
  Basis Set: STO-3G
    Blend: STO-3G
  Basis Set: (STO-3G AUX)
    Blend: DEF2-SVP-JKFIT
  @DF-RHF Final Energy:  -379.77011151297563
    Total Energy =                       -379.7701115129756317
    Molecular point group: c2h
  Basis Set: STO-3G
    Blend: STO-3G
  Basis Set: (STO-3G AUX)
    Blend: DEF2-SVP-JKFIT
  Basis Set: STO-3G
    Blend: STO-3G
  Basis Set: (STO-3G AUX)
    Blend: DEF2-SVP-JKFIT
  @DF-RHF Final Energy:  -379.77006013065625
    Total Energy =                       -379.7700601306562476
  Basis Set: STO-3G
    Blend: STO-3G
  Basis Set: (STO-3G AUX)
    Blend: DEF2-SVP-JKFIT
  Basis Set: STO-3G
    Blend: STO-3G
  @DF-RHF Final Energy:  -379.77016119113711
    Total Energy =                       -379.7701611911370492
  @DF-RHF Final Energy:  -379.77011824583053
    Total Energy =                       -379.7701182458305311
  @DF-RHF Final Energy:  -379.77010279272014
    Total Energy =                       -379.7701027927200812
  @DF-RHF Final Energy:  -379.77010430350708
    Total Energy =                       -379.7701043035070825
  @DF-RHF Final Energy:  -379.77011671580874
    Total Energy =                       -379.7701167158087401
  @DF-RHF Final Energy:  -379.77013969381545
    Total Energy =                       -379.7701396938153948
  @DF-RHF Final Energy:  -379.77008142619741
    Total Energy =                       -379.7700814261974074
  @DF-RHF Final Energy:  -379.77012238436942
    Total Energy =                       -379.7701223843694152
  @DF-RHF Final Energy:  -379.77009869215004
    Total Energy =                       -379.7700986921499862
  @DF-RHF Final Energy:  -379.77013810964064
    Total Energy =                       -379.7701381096405839
  @DF-RHF Final Energy:  -379.77008303903216
    Total Energy =                       -379.7700830390322153
  @DF-RHF Final Energy:  -379.77007413636989
    Total Energy =                       -379.7700741363698853
  @DF-RHF Final Energy:  -379.77014575322528
    Total Energy =                       -379.7701457532252789
  @DF-RHF Final Energy:  -379.77019839612325
    Total Energy =                       -379.7701983961233054
  @DF-RHF Final Energy:  -379.77001460648654
    Total Energy =                       -379.7700146064865976
  @DF-RHF Final Energy:  -379.77017829226065
    Total Energy =                       -379.7701782922606526
  @DF-RHF Final Energy:  -379.77003898609075
    Total Energy =                       -379.7700389860907535
  @DF-RHF Final Energy:  -379.77017666675374
    Total Energy =                       -379.7701766667537413
  @DF-RHF Final Energy:  -379.77011110249447
    Total Energy =                       -379.7701111024945249
  @DF-RHF Final Energy:  -379.77011044964388
    Total Energy =                       -379.7701104496438802
  @DF-RHF Final Energy:  -379.77011076462122
    Total Energy =                       -379.7701107646212222
  @DF-RHF Final Energy:  -379.77011074382659
    Total Energy =                       -379.7701107438265353
  @DF-RHF Final Energy:  -379.77011041653611
    Total Energy =                       -379.7701104165361130
  @DF-RHF Final Energy:  -379.77011071535679
    Total Energy =                       -379.7701107153567364
  @DF-RHF Final Energy:  -379.77011064569319
    Total Energy =                       -379.7701106456931939
  @DF-RHF Final Energy:  -379.77010998385788
    Total Energy =                       -379.7701099838578784
  @DF-RHF Final Energy:  -379.77010666671026
    Total Energy =                       -379.7701066667102623
  @DF-RHF Final Energy:  -379.77010874528497
    Total Energy =                       -379.7701087452850288
  @DF-RHF Final Energy:  -379.77010786101351
    Total Energy =                       -379.7701078610134573
  @DF-RHF Final Energy:  -379.77011027164639
    Total Energy =                       -379.7701102716464447
  @DF-RHF Final Energy:  -379.77010988692064
    Total Energy =                       -379.7701098869206362
  @DF-RHF Final Energy:  -379.77011029208489
    Total Energy =                       -379.7701102920849507
  @DF-RHF Final Energy:  -379.77010653262778
    Total Energy =                       -379.7701065326277785
  @DF-RHF Final Energy:  -379.77010770000163
    Total Energy =                       -379.7701077000016312
  @DF-RHF Final Energy:  -379.77010745972387
    Total Energy =                       -379.7701074597238176
  @DF-RHF Final Energy:  -379.77010836276600
    Total Energy =                       -379.7701083627659955
  Basis Set: (STO-3G AUX)
    Blend: DEF2-SVP-JKFIT
  Basis Set: STO-3G
    Blend: STO-3G
  Basis Set: (STO-3G AUX)
    Blend: DEF2-SVP-JKFIT
  @DF-RHF Final Energy:  -379.77010808181467
    Total Energy =                       -379.7701080818146693
  Basis Set: STO-3G
    Blend: STO-3G
  Basis Set: (STO-3G AUX)
    Blend: DEF2-SVP-JKFIT
    Molecular point group: c2h
  Charge       = 0
  Multiplicity = 1
  Basis Set: STO-3G
    Blend: STO-3G
  Basis Set: (STO-3G AUX)
    Blend: DEF2-SVP-JKFIT

    Orbital Energies [Eh]
    ---------------------

    Doubly Occupied:

       1Bu   -11.040746     1Ag   -11.040684     2Bu   -11.031748
       2Ag   -11.031747     3Bu   -11.029111     3Ag   -11.028980
       4Bu   -11.028767     4Ag   -11.028743     5Bu   -11.017634
       5Ag   -11.017633     6Ag    -1.090317     6Bu    -1.020272
       7Ag    -0.974940     7Bu    -0.950318     8Bu    -0.909650
       8Ag    -0.799895     9Ag    -0.762837     9Bu    -0.727642
      10Ag    -0.696780    11Ag    -0.628047    10Bu    -0.605675
      11Bu    -0.572947    12Bu    -0.553601    12Ag    -0.553162
      13Bu    -0.525353    14Bu    -0.496696    13Ag    -0.492528
       1Au    -0.463721    15Bu    -0.446434    14Ag    -0.421659
      15Ag    -0.415628     1Bg    -0.376953     2Au    -0.315119
       2Bg    -0.278351     3Bg    -0.222179

  @DF-RHF Final Energy:  -379.77011151096843

   => Energetics <=

    Nuclear Repulsion Energy =            445.9369781142434590
    One-Electron Energy =               -1400.2211833620749530
    Two-Electron Energy =                 574.5140937368630603
    Total Energy =                       -379.7701115109684906

  Dipole Moment: [D]
     X:     0.0000      Y:     0.0000      Z:     0.0000     Total:     0.0000

    Molecular point group: c2h

    Geometry (in Angstrom), charge = 0, multiplicity = 1:

       Center              X                  Y                   Z               Mass
    ------------   -----------------  -----------------  -----------------  -----------------
         C           -1.415253322400     0.230221785400     0.000000000000    12.000000000000
         C            1.415253322400    -0.230221785400     0.000000000000    12.000000000000
         C           -0.495133155800     1.314460867400     0.000000000000    12.000000000000
         C            0.495133155800    -1.314460867400     0.000000000000    12.000000000000
         C            0.889409043600     1.090949374300     0.000000000000    12.000000000000
         C           -0.889409043600    -1.090949374300     0.000000000000    12.000000000000
         H           -0.879551198500     2.343734374800     0.000000000000     1.007825032070
         H            0.879551198500    -2.343734374800     0.000000000000     1.007825032070
         H            1.577904155700     1.945006127500     0.000000000000     1.007825032070
         H           -1.577904155700    -1.945006127500     0.000000000000     1.007825032070
         C            2.884584496200    -0.521089377800     0.000000000000    12.000000000000
         C           -2.884584496200     0.521089377800     0.000000000000    12.000000000000
         H            3.140335681000    -1.591960568500     0.000000000000     1.007825032070
         H           -3.140335681000     1.591960568500     0.000000000000     1.007825032070
         C            3.880042810300     0.382253542400     0.000000000000    12.000000000000
         C           -3.880042810300    -0.382253542400     0.000000000000    12.000000000000
         H            3.694676585800     1.462438957000     0.000000000000     1.007825032070
         H           -3.694676585800    -1.462438957000     0.000000000000     1.007825032070
         H            4.931645354600     0.071104954300     0.000000000000     1.007825032070
         H           -4.931645354600    -0.071104954300     0.000000000000     1.007825032070

  Basis Set: STO-3G
    Blend: STO-3G
  Basis Set: (STO-3G AUX)
    Blend: DEF2-SVP-JKFIT

  -Total Gradient:
     Atom            X                  Y                   Z
    ------   -----------------  -----------------  -----------------
       1       -0.024735259211     0.003904056606     0.000000000000
       2        0.024735259211    -0.003904056606     0.000000000000
       3       -0.002952676301     0.014281980565     0.000000000000
       4        0.002952676301    -0.014281980565     0.000000000000
       5        0.005586721867     0.013581040627     0.000000000000
       6       -0.005586721867    -0.013581040627     0.000000000000
       7       -0.005023706797     0.013071421803     0.000000000000
       8        0.005023706797    -0.013071421803     0.000000000000
       9        0.009852481950     0.009824173648     0.000000000000
      10       -0.009852481950    -0.009824173648     0.000000000000
      11       -0.032893342519    -0.017480361326     0.000000000000
      12        0.032893342519     0.017480361326     0.000000000000
      13        0.003237901535    -0.014105227355     0.000000000000
      14       -0.003237901535     0.014105227355     0.000000000000
      15        0.023997543466     0.021039016742     0.000000000000
      16       -0.023997543466    -0.021039016742     0.000000000000
      17       -0.003372952916     0.013513715703     0.000000000000
      18        0.003372952916    -0.013513715703     0.000000000000
      19        0.013258699178    -0.003903995640     0.000000000000
      20       -0.013258699178     0.003903995640     0.000000000000

  Vibration                       7                   8                   9
  Freq [cm^-1]                 137.2458            244.1037            247.2962
  Irrep                           Au                  Bg                  Bu
  Reduced mass [u]              4.5433              3.1420              3.8643
  Force const [mDyne/A]         0.0504              0.1103              0.1392

  Vibration                       10                  11                  12
  Freq [cm^-1]                 319.6153            339.6122            414.4784
  Irrep                           Au                  Ag                  Bg
  Reduced mass [u]              2.0580              3.7834              2.3781
  Force const [mDyne/A]         0.1239              0.2571              0.2407

  Vibration                       13                  14                  15
  Freq [cm^-1]                 452.2312            522.1300            545.8479
  Irrep                           Ag                  Au                  Bu
  Reduced mass [u]              4.5134              3.1776              3.4538
  Force const [mDyne/A]         0.5438              0.5104              0.6063

  Vibration                       16                  17                  18
  Freq [cm^-1]                 597.7296            663.3447            729.4574
  Irrep                           Au                  Ag                  Ag
  Reduced mass [u]              2.3270              2.9714              6.9259
  Force const [mDyne/A]         0.4898              0.7704              2.1713

  Vibration                       19                  20                  21
  Freq [cm^-1]                 791.0826            806.9773            861.5105
  Irrep                           Bg                  Bu                  Au
  Reduced mass [u]              1.9952              3.1505              1.4403
  Force const [mDyne/A]         0.7357              1.2088              0.6298

  Vibration                       22                  23                  24
  Freq [cm^-1]                 923.9466            937.4513            997.8935
  Irrep                           Ag                  Bg                  Bu
  Reduced mass [u]              4.6682              2.7320              6.8670
  Force const [mDyne/A]         2.3480              1.4146              4.0289

  Vibration                       25                  26                  27
  Freq [cm^-1]                1062.5322           1078.4897           1160.7087
  Irrep                           Au                  Bg                  Bu
  Reduced mass [u]              1.5075              1.2493              3.1680
  Force const [mDyne/A]         1.0028              0.8562              2.5147

  Vibration                       28                  29                  30
  Freq [cm^-1]                1181.6016           1181.6679           1197.5770
  Irrep                           Au                  Bg                  Bg
  Reduced mass [u]              1.3453              1.3471              1.2614
  Force const [mDyne/A]         1.1066              1.1083              1.0659

  Vibration                       31                  32                  33
  Freq [cm^-1]                1221.6223           1231.6603           1236.4687
  Irrep                           Au                  Ag                  Bu
  Reduced mass [u]              1.3118              1.5346              1.4638
  Force const [mDyne/A]         1.1535              1.3716              1.3186

  Vibration                       34                  35                  36
  Freq [cm^-1]                1280.8292           1281.0612           1328.2445
  Irrep                           Au                  Bg                  Bu
  Reduced mass [u]              1.0985              1.0998              1.6256
  Force const [mDyne/A]         1.0618              1.0634              1.6898

  Vibration                       37                  38                  39
  Freq [cm^-1]                1381.2545           1387.5293           1426.8482
  Irrep                           Ag                  Ag                  Bu
  Reduced mass [u]              2.6738              1.2906              1.9705
  Force const [mDyne/A]         3.0055              1.4639              2.3636

  Vibration                       40                  41                  42
  Freq [cm^-1]                1533.1458           1542.5831           1558.0969
  Irrep                           Ag                  Bu                  Ag
  Reduced mass [u]              1.4468              1.3673              1.3577
  Force const [mDyne/A]         2.0037              1.9169              1.9420

  Vibration                       43                  44                  45
  Freq [cm^-1]                1636.4461           1714.6100           1726.9945
  Irrep                           Bu                  Ag                  Bu
  Reduced mass [u]              2.1995              1.4025              1.3167
  Force const [mDyne/A]         3.4705              2.4294              2.3137

  Vibration                       46                  47                  48
  Freq [cm^-1]                1786.8504           1807.2725           1874.3204
  Irrep                           Bu                  Ag                  Ag
  Reduced mass [u]              2.1536              3.5372              4.5273
  Force const [mDyne/A]         4.0512              6.8070              9.3709

  Vibration                       49                  50                  51
  Freq [cm^-1]                1942.4689           1944.9727           3519.8315
  Irrep                           Ag                  Bu                  Bu
  Reduced mass [u]              2.9387              2.9547              1.0638
  Force const [mDyne/A]         6.5331              6.5856              7.7656

  Vibration                       52                  53                  54
  Freq [cm^-1]                3521.0538           3565.3811           3565.7352
  Irrep                           Ag                  Ag                  Bu
  Reduced mass [u]              1.0638              1.0996              1.0994
  Force const [mDyne/A]         7.7708              8.2357              8.2360

  Vibration                       55                  56                  57
  Freq [cm^-1]                3575.7065           3582.5018           3602.6926
  Irrep                           Bu                  Ag                  Bu
  Reduced mass [u]              1.0930              1.0945              1.0994
  Force const [mDyne/A]         8.2335              8.2763              8.4074

  Vibration                       58                  59                  60
  Freq [cm^-1]                3606.0939           3680.3045           3680.4215
  Irrep                           Ag                  Ag                  Bu
  Reduced mass [u]              1.0997              1.1197              1.1198
  Force const [mDyne/A]         8.4257              8.9357              8.9369

  ==> Thermochemistry Components <==

  Entropy, S
    Electronic S            0.000 [cal/(mol K)]        0.000 [J/(mol K)]       0.00000000 [mEh/K] (multiplicity = 1)
    Translational S        40.502 [cal/(mol K)]      169.460 [J/(mol K)]       0.06454389 [mEh/K] (mol. weight = 130.0783 [u], P = 101325.00 [Pa])
    Rotational S           28.143 [cal/(mol K)]      117.751 [J/(mol K)]       0.04484898 [mEh/K] (symmetry no. = 2)
    Vibrational S          14.373 [cal/(mol K)]       60.138 [J/(mol K)]       0.02290540 [mEh/K]
  Total S                  83.018 [cal/(mol K)]      347.349 [J/(mol K)]       0.13229827 [mEh/K]
  Correction S              0.000 [cal/(mol K)]        0.000 [J/(mol K)]       0.00000000 [mEh/K]

  Constant volume heat capacity, Cv
    Electronic Cv           0.000 [cal/(mol K)]        0.000 [J/(mol K)]       0.00000000 [mEh/K]
    Translational Cv        2.981 [cal/(mol K)]       12.472 [J/(mol K)]       0.00475022 [mEh/K]
    Rotational Cv           2.981 [cal/(mol K)]       12.472 [J/(mol K)]       0.00475022 [mEh/K]
    Vibrational Cv         22.922 [cal/(mol K)]       95.907 [J/(mol K)]       0.03652910 [mEh/K]
  Total Cv                 28.884 [cal/(mol K)]      120.851 [J/(mol K)]       0.04602955 [mEh/K]
  Correction Cv             0.000 [cal/(mol K)]        0.000 [J/(mol K)]       0.00000000 [mEh/K]

  Constant pressure heat capacity, Cp
    Electronic Cp           0.000 [cal/(mol K)]        0.000 [J/(mol K)]       0.00000000 [mEh/K]
    Translational Cp        4.968 [cal/(mol K)]       20.786 [J/(mol K)]       0.00791704 [mEh/K]
    Rotational Cp           2.981 [cal/(mol K)]       12.472 [J/(mol K)]       0.00475022 [mEh/K]
    Vibrational Cp         22.922 [cal/(mol K)]       95.907 [J/(mol K)]       0.03652910 [mEh/K]
  Total Cp                 30.871 [cal/(mol K)]      129.165 [J/(mol K)]       0.04919636 [mEh/K]
  Correction Cp             0.000 [cal/(mol K)]        0.000 [J/(mol K)]       0.00000000 [mEh/K]

  ==> Thermochemistry Energy Analysis <==

  Raw electronic energy, E0
  Total E0, Electronic energy at well bottom at 0 [K]                 -379.77011151 [Eh]

  Zero-point energy, ZPE_vib = Sum_i nu_i / 2
    Electronic ZPE          0.000 [kcal/mol]        0.000 [kJ/mol]       0.00000000 [Eh]
    Translational ZPE       0.000 [kcal/mol]        0.000 [kJ/mol]       0.00000000 [Eh]
    Rotational ZPE          0.000 [kcal/mol]        0.000 [kJ/mol]       0.00000000 [Eh]
    Vibrational ZPE       120.281 [kcal/mol]      503.254 [kJ/mol]       0.19167937 [Eh]       42068.752 [cm^-1]
  Correction ZPE          120.281 [kcal/mol]      503.254 [kJ/mol]       0.19167937 [Eh]       42068.752 [cm^-1]
  Total ZPE, Electronic energy at 0 [K]                               -379.57843215 [Eh]

  Thermal Energy, E (includes ZPE)
    Electronic E            0.000 [kcal/mol]        0.000 [kJ/mol]       0.00000000 [Eh]
    Translational E         0.889 [kcal/mol]        3.718 [kJ/mol]       0.00141628 [Eh]
    Rotational E            0.889 [kcal/mol]        3.718 [kJ/mol]       0.00141628 [Eh]
    Vibrational E         123.027 [kcal/mol]      514.744 [kJ/mol]       0.19605552 [Eh]
  Correction E            124.804 [kcal/mol]      522.181 [kJ/mol]       0.19888808 [Eh]
  Total E, Electronic energy at  298.15 [K]                           -379.57122344 [Eh]

  Enthalpy, H_trans = E_trans + k_B * T
    Electronic H            0.000 [kcal/mol]        0.000 [kJ/mol]       0.00000000 [Eh]
    Translational H         1.481 [kcal/mol]        6.197 [kJ/mol]       0.00236046 [Eh]
    Rotational H            0.889 [kcal/mol]        3.718 [kJ/mol]       0.00141628 [Eh]
    Vibrational H         123.027 [kcal/mol]      514.744 [kJ/mol]       0.19605552 [Eh]
  Correction H            125.397 [kcal/mol]      524.660 [kJ/mol]       0.19983226 [Eh]
  Total H, Enthalpy at  298.15 [K]                                    -379.57027925 [Eh]

  Gibbs free energy, G = H - T * S
    Electronic G            0.000 [kcal/mol]        0.000 [kJ/mol]       0.00000000 [Eh]
    Translational G       -10.594 [kcal/mol]      -44.327 [kJ/mol]      -0.01688330 [Eh]
    Rotational G           -7.502 [kcal/mol]      -31.389 [kJ/mol]      -0.01195544 [Eh]
    Vibrational G         118.741 [kcal/mol]      496.814 [kJ/mol]       0.18922627 [Eh]
  Correction G            100.645 [kcal/mol]      421.097 [kJ/mol]       0.16038753 [Eh]
  Total G, Free enthalpy at  298.15 [K]                               -379.60972398 [Eh]

*** Psi4 exiting successfully. Buy a developer a beer!
