                               Psi4 1.3.1 release

  ==> Input File <==

--------------------------------------------------------------------------
molecule dvb {
    1 2
    C    -1.4152533224   0.2302217854   0.0000000000
    C     1.4152533224  -0.2302217854   0.0000000000
    C    -0.4951331558   1.3144608674   0.0000000000
    C     0.4951331558  -1.3144608674   0.0000000000
    C     0.8894090436   1.0909493743   0.0000000000
    C    -0.8894090436  -1.0909493743   0.0000000000
    H    -0.8795511985   2.3437343748   0.0000000000
    H     0.8795511985  -2.3437343748   0.0000000000
    H     1.5779041557   1.9450061275   0.0000000000
    H    -1.5779041557  -1.9450061275   0.0000000000
    C     2.8845844962  -0.5210893778   0.0000000000
    C    -2.8845844962   0.5210893778   0.0000000000
    H     3.1403356810  -1.5919605685   0.0000000000
    H    -3.1403356810   1.5919605685   0.0000000000
    C     3.8800428103   0.3822535424   0.0000000000
    C    -3.8800428103  -0.3822535424   0.0000000000
    H     3.6946765858   1.4624389570   0.0000000000
    H    -3.6946765858  -1.4624389570   0.0000000000
    H     4.9316453546   0.0711049543   0.0000000000
    H    -4.9316453546  -0.0711049543   0.0000000000
}

set {
    basis sto-3g
    reference rohf
    print_basis true
    print_mos true
}

scf_e, scf_wfn = energy('scf', return_wfn=True)
oeprop(scf_wfn, 'MULLIKEN_CHARGES', 'LOWDIN_CHARGES', 'MULTIPOLE(5)')
--------------------------------------------------------------------------

    Molecular point group: c2h

    Geometry (in Angstrom), charge = 1, multiplicity = 2:

       Center              X                  Y                   Z               Mass
    ------------   -----------------  -----------------  -----------------  -----------------
         C           -1.415253322400     0.230221785400     0.000000000000    12.000000000000
         C            1.415253322400    -0.230221785400     0.000000000000    12.000000000000
         C           -0.495133155800     1.314460867400     0.000000000000    12.000000000000
         C            0.495133155800    -1.314460867400     0.000000000000    12.000000000000
         C            0.889409043600     1.090949374300     0.000000000000    12.000000000000
         C           -0.889409043600    -1.090949374300     0.000000000000    12.000000000000
         H           -0.879551198500     2.343734374800     0.000000000000     1.007825032230
         H            0.879551198500    -2.343734374800     0.000000000000     1.007825032230
         H            1.577904155700     1.945006127500     0.000000000000     1.007825032230
         H           -1.577904155700    -1.945006127500     0.000000000000     1.007825032230
         C            2.884584496200    -0.521089377800     0.000000000000    12.000000000000
         C           -2.884584496200     0.521089377800     0.000000000000    12.000000000000
         H            3.140335681000    -1.591960568500     0.000000000000     1.007825032230
         H           -3.140335681000     1.591960568500     0.000000000000     1.007825032230
         C            3.880042810300     0.382253542400     0.000000000000    12.000000000000
         C           -3.880042810300    -0.382253542400     0.000000000000    12.000000000000
         H            3.694676585800     1.462438957000     0.000000000000     1.007825032230
         H           -3.694676585800    -1.462438957000     0.000000000000     1.007825032230
         H            4.931645354600     0.071104954300     0.000000000000     1.007825032230
         H           -4.931645354600    -0.071104954300     0.000000000000     1.007825032230

  Charge       = 1
  Multiplicity = 2
  Basis Set: STO-3G
    Blend: STO-3G
  Basis Set: (STO-3G AUX)
    Blend: DEF2-SVP-JKFIT

    Orbital Energies [Eh]
    ---------------------

    Doubly Occupied:

       1Bu   -11.297741     1Ag   -11.297690     2Bu   -11.249191
       2Ag   -11.249084     3Bu   -11.248587     3Ag   -11.248548
       4Ag   -11.237284     4Bu   -11.237284     5Bu   -11.218908
       5Ag   -11.218908     6Ag    -1.307085     6Bu    -1.223657
       7Ag    -1.166720     7Bu    -1.156667     8Bu    -1.110594
       8Ag    -0.998283     9Ag    -0.968679     9Bu    -0.913792
      10Ag    -0.892724    11Ag    -0.819423    10Bu    -0.801073
      11Bu    -0.767873    12Bu    -0.755528    12Ag    -0.738992
      13Bu    -0.726398    14Bu    -0.695910    13Ag    -0.679447
       1Au    -0.655539    15Bu    -0.633382    14Ag    -0.627598
      15Ag    -0.612554     1Bg    -0.552536     2Bg    -0.482016
       2Au    -0.480812

    Singly Occupied:

       3Bg    -0.311830

  @DF-ROHF Final Energy:  -379.56859777921704

   => Energetics <=

    Nuclear Repulsion Energy =            445.9369798670570049
    One-Electron Energy =               -1386.0237500151833956
    Two-Electron Energy =                 560.5181723689092905
    Total Energy =                       -379.5685977792170434

  Dipole Moment: [D]
     X:     0.0000      Y:     0.0000      Z:     0.0000     Total:     0.0000

 Dipole X            :          0.0000000            0.0000000            0.0000000
 Dipole Y            :          0.0000000            0.0000000            0.0000000
 Dipole Z            :          0.0000000            0.0000000            0.0000000

  Lowdin Charges: (a.u.)
   Center  Symbol    Alpha    Beta     Spin     Total
       1     C     3.05011  2.81572  0.23439  0.13417
       2     C     3.05011  2.81572  0.23439  0.13417
       3     C     3.02685  2.96439  0.06246  0.00876
       4     C     3.02685  2.96439  0.06246  0.00876
       5     C     3.02865  2.96650  0.06215  0.00485
       6     C     3.02865  2.96650  0.06215  0.00485
       7     H     0.46449  0.46449  0.00000  0.07102
       8     H     0.46449  0.46449  0.00000  0.07102
       9     H     0.46606  0.46606  0.00000  0.06788
      10     H     0.46606  0.46606  0.00000  0.06788
      11     C     3.03308  2.99982  0.03326 -0.03291
      12     C     3.03308  2.99982  0.03326 -0.03291
      13     H     0.47110  0.47110  0.00000  0.05780
      14     H     0.47110  0.47110  0.00000  0.05780
      15     C     3.03172  2.92399  0.10773  0.04429
      16     C     3.03172  2.92399  0.10773  0.04429
      17     H     0.46788  0.46788  0.00000  0.06423
      18     H     0.46788  0.46788  0.00000  0.06423
      19     H     0.46005  0.46005  0.00000  0.07991
      20     H     0.46005  0.46005  0.00000  0.07991

  Total alpha = 35.00000, Total beta = 34.00000, Total charge =  1.00000

*** Psi4 exiting successfully. Buy a developer a beer!
