                               Psi4 1.3.1 release

  ==> Input File <==

--------------------------------------------------------------------------
molecule dvb {
    0 1
    C    -1.4152533224   0.2302217854   0.0000000000
    C     1.4152533224  -0.2302217854   0.0000000000
    C    -0.4951331558   1.3144608674   0.0000000000
    C     0.4951331558  -1.3144608674   0.0000000000
    C     0.8894090436   1.0909493743   0.0000000000
    C    -0.8894090436  -1.0909493743   0.0000000000
    H    -0.8795511985   2.3437343748   0.0000000000
    H     0.8795511985  -2.3437343748   0.0000000000
    H     1.5779041557   1.9450061275   0.0000000000
    H    -1.5779041557  -1.9450061275   0.0000000000
    C     2.8845844962  -0.5210893778   0.0000000000
    C    -2.8845844962   0.5210893778   0.0000000000
    H     3.1403356810  -1.5919605685   0.0000000000
    H    -3.1403356810   1.5919605685   0.0000000000
    C     3.8800428103   0.3822535424   0.0000000000
    C    -3.8800428103  -0.3822535424   0.0000000000
    H     3.6946765858   1.4624389570   0.0000000000
    H    -3.6946765858  -1.4624389570   0.0000000000
    H     4.9316453546   0.0711049543   0.0000000000
    H    -4.9316453546  -0.0711049543   0.0000000000
}

set {
    basis sto-3g
    fd_project true
}

frequencies('scf', dertype='gradient')
--------------------------------------------------------------------------

    Molecular point group: c2h
  Charge       = 0
  Multiplicity = 1
  Basis Set: STO-3G
    Blend: STO-3G
  Basis Set: (STO-3G AUX)
    Blend: DEF2-SVP-JKFIT
  @DF-RHF Final Energy:  -379.77011151407282
    Total Energy =                       -379.7701115140728234
    Molecular point group: c2h
  Basis Set: STO-3G
    Blend: STO-3G
  Basis Set: (STO-3G AUX)
    Blend: DEF2-SVP-JKFIT
  Basis Set: STO-3G
    Blend: STO-3G
  Basis Set: (STO-3G AUX)
    Blend: DEF2-SVP-JKFIT
  @DF-RHF Final Energy:  -379.77011151550403
    Total Energy =                       -379.7701115155040270
  Basis Set: STO-3G
    Blend: STO-3G
  Basis Set: (STO-3G AUX)
    Blend: DEF2-SVP-JKFIT
  Basis Set: STO-3G
    Blend: STO-3G
  @DF-RHF Final Energy:  -379.77006013473067
    Total Energy =                       -379.7700601347306701
  @DF-RHF Final Energy:  -379.77016119373246
    Total Energy =                       -379.7701611937324060
  @DF-RHF Final Energy:  -379.77011824512635
    Total Energy =                       -379.7701182451263549
  @DF-RHF Final Energy:  -379.77010279169968
    Total Energy =                       -379.7701027916997418
  @DF-RHF Final Energy:  -379.77010430833445
    Total Energy =                       -379.7701043083344530
  @DF-RHF Final Energy:  -379.77011672077759
    Total Energy =                       -379.7701167207775370
  @DF-RHF Final Energy:  -379.77013969759673
    Total Energy =                       -379.7701396975967327
  @DF-RHF Final Energy:  -379.77008142056900
    Total Energy =                       -379.7700814205689994
  @DF-RHF Final Energy:  -379.77012238408895
    Total Energy =                       -379.7701223840889497
  @DF-RHF Final Energy:  -379.77009869086396
    Total Energy =                       -379.7700986908639607
  @DF-RHF Final Energy:  -379.77013811385939
    Total Energy =                       -379.7701381138593888
  @DF-RHF Final Energy:  -379.77008304268543
    Total Energy =                       -379.7700830426854282
  @DF-RHF Final Energy:  -379.77007413920740
    Total Energy =                       -379.7700741392073951
  @DF-RHF Final Energy:  -379.77014576412000
    Total Energy =                       -379.7701457641200022
  @DF-RHF Final Energy:  -379.77019840169942
    Total Energy =                       -379.7701984016994174
  @DF-RHF Final Energy:  -379.77001460979710
    Total Energy =                       -379.7700146097970446
  @DF-RHF Final Energy:  -379.77017829166323
    Total Energy =                       -379.7701782916632283
  @DF-RHF Final Energy:  -379.77003898744823
    Total Energy =                       -379.7700389874482880
  @DF-RHF Final Energy:  -379.77011087804777
    Total Energy =                       -379.7701108780477171
  @DF-RHF Final Energy:  -379.77011110680343
    Total Energy =                       -379.7701111068033697
  @DF-RHF Final Energy:  -379.77011045604331
    Total Energy =                       -379.7701104560433123
  @DF-RHF Final Energy:  -379.77011077071228
    Total Energy =                       -379.7701107707122219
  @DF-RHF Final Energy:  -379.77011074593293
    Total Energy =                       -379.7701107459329251
  @DF-RHF Final Energy:  -379.77011041996900
    Total Energy =                       -379.7701104199690008
  @DF-RHF Final Energy:  -379.77011071495753
    Total Energy =                       -379.7701107149575819
  @DF-RHF Final Energy:  -379.77011064936596
    Total Energy =                       -379.7701106493659609
  @DF-RHF Final Energy:  -379.77010999177907
    Total Energy =                       -379.7701099917790089
  @DF-RHF Final Energy:  -379.77010667294155
    Total Energy =                       -379.7701066729415516
  @DF-RHF Final Energy:  -379.77010874835412
    Total Energy =                       -379.7701087483541187
  @DF-RHF Final Energy:  -379.77010786221848
    Total Energy =                       -379.7701078622184241
  @DF-RHF Final Energy:  -379.77011027467410
    Total Energy =                       -379.7701102746741526
  @DF-RHF Final Energy:  -379.77010988490116
    Total Energy =                       -379.7701098849011032
  @DF-RHF Final Energy:  -379.77011029458413
    Total Energy =                       -379.7701102945841285
  @DF-RHF Final Energy:  -379.77010653453658
    Total Energy =                       -379.7701065345365805
  @DF-RHF Final Energy:  -379.77010770414228
    Total Energy =                       -379.7701077041423332
  @DF-RHF Final Energy:  -379.77010746247504
    Total Energy =                       -379.7701074624750390
  Basis Set: (STO-3G AUX)
    Blend: DEF2-SVP-JKFIT
  Basis Set: STO-3G
    Blend: STO-3G
  Basis Set: (STO-3G AUX)
    Blend: DEF2-SVP-JKFIT
  @DF-RHF Final Energy:  -379.77010836497686
    Total Energy =                       -379.7701083649768634
  Basis Set: STO-3G
    Blend: STO-3G
  Basis Set: (STO-3G AUX)
    Blend: DEF2-SVP-JKFIT
    Molecular point group: cs
  Charge       = 0
  Multiplicity = 1
  Basis Set: STO-3G
    Blend: STO-3G
  Basis Set: (STO-3G AUX)
    Blend: DEF2-SVP-JKFIT

    Orbital Energies [Eh]
    ---------------------

    Doubly Occupied:

       1Ap   -11.040747     2Ap   -11.040684     3Ap   -11.031789
       4Ap   -11.031707     5Ap   -11.029111     6Ap   -11.028980
       7Ap   -11.028768     8Ap   -11.028742     9Ap   -11.017696
      10Ap   -11.017571    11Ap    -1.090317    12Ap    -1.020272
      13Ap    -0.974940    14Ap    -0.950318    15Ap    -0.909651
      16Ap    -0.799896    17Ap    -0.762837    18Ap    -0.727642
      19Ap    -0.696780    20Ap    -0.628047    21Ap    -0.605675
      22Ap    -0.572947    23Ap    -0.553601    24Ap    -0.553162
      25Ap    -0.525353    26Ap    -0.496695    27Ap    -0.492528
       1App   -0.463721    28Ap    -0.446433    29Ap    -0.421659
      30Ap    -0.415628     2App   -0.376953     3App   -0.315119
       4App   -0.278352     5App   -0.222179

  @DF-RHF Final Energy:  -379.77010808257398

   => Energetics <=

    Nuclear Repulsion Energy =            445.9369848719726406
    One-Electron Energy =               -1400.2211890587498146
    Two-Electron Energy =                 574.5140961042031904
    Total Energy =                       -379.7701080825739837

  Dipole Moment: [D]
     X:    -0.0030      Y:    -0.0007      Z:     0.0000     Total:     0.0030

    Molecular point group: cs

    Geometry (in Angstrom), charge = 0, multiplicity = 1:

       Center              X                  Y                   Z               Mass
    ------------   -----------------  -----------------  -----------------  -----------------
         C           -1.415253322400     0.230221785400     0.000000000000    12.000000000000
         C            1.415253322400    -0.230221785400     0.000000000000    12.000000000000
         C           -0.495133155800     1.314460867400     0.000000000000    12.000000000000
         C            0.495133155800    -1.314460867400     0.000000000000    12.000000000000
         C            0.889409043600     1.090949374300     0.000000000000    12.000000000000
         C           -0.889409043600    -1.090949374300     0.000000000000    12.000000000000
         H           -0.879551198500     2.343734374800     0.000000000000     1.007825032230
         H            0.879551198500    -2.343734374800     0.000000000000     1.007825032230
         H            1.577904155700     1.945006127500     0.000000000000     1.007825032230
         H           -1.577904155700    -1.945006127500     0.000000000000     1.007825032230
         C            2.884584496200    -0.521089377800     0.000000000000    12.000000000000
         C           -2.884584496200     0.521089377800     0.000000000000    12.000000000000
         H            3.140335681000    -1.591960568500     0.000000000000     1.007825032230
         H           -3.140335681000     1.591960568500     0.000000000000     1.007825032230
         C            3.880042810300     0.382253542400     0.000000000000    12.000000000000
         C           -3.880042810300    -0.382253542400     0.000000000000    12.000000000000
         H            3.694676585800     1.461121159829     0.000000000000     1.007825032230
         H           -3.694676585800    -1.463756754171     0.000000000000     1.007825032230
         H            4.931645354600     0.072422751471     0.000000000000     1.007825032230
         H           -4.931645354600    -0.069787157129     0.000000000000     1.007825032230

  Basis Set: STO-3G
    Blend: STO-3G
  Basis Set: (STO-3G AUX)
    Blend: DEF2-SVP-JKFIT

  -Total Gradient:
     Atom            X                  Y                   Z
    ------   -----------------  -----------------  -----------------
       1       -0.024740903852     0.003892805027     0.000000000000
       2        0.024730398486    -0.003915003663     0.000000000000
       3       -0.002956690204     0.014283033026     0.000000000000
       4        0.002949076036    -0.014281126522     0.000000000000
       5        0.005584716490     0.013579403658     0.000000000000
       6       -0.005588863251    -0.013582821031     0.000000000000
       7       -0.005024132868     0.013072347384     0.000000000000
       8        0.005023471950    -0.013071013713     0.000000000000
       9        0.009848671125     0.009823459166     0.000000000000
      10       -0.009856441284    -0.009825178052     0.000000000000
      11       -0.032996659484    -0.017416461664     0.000000000000
      12        0.032790056247     0.017544255518     0.000000000000
      13        0.003244650294    -0.014096487677     0.000000000000
      14       -0.003231160400     0.014114241202     0.000000000000
      15        0.024099661828     0.021821736934     0.000000000000
      16       -0.023893538763    -0.020263627163     0.000000000000
      17       -0.003123451303     0.012401239065     0.000000000000
      18        0.003620660786    -0.014619680575     0.000000000000
      19        0.013019088288    -0.003634847081     0.000000000000
      20       -0.013498610121     0.004173726160     0.000000000000

  Vibration                       7                   8                   9
  Freq [cm^-1]                 137.2532            244.0764            247.5369
  Irrep                           Au                  Bg                  Bu
  Reduced mass [u]              4.5434              3.1411              3.8642
  Force const [mDyne/A]         0.0504              0.1103              0.1395

  Vibration                       10                  11                  12
  Freq [cm^-1]                 319.6167            339.8561            414.4601
  Irrep                           Au                  Ag                  Bg
  Reduced mass [u]              2.0580              3.7775              2.3791
  Force const [mDyne/A]         0.1239              0.2571              0.2408

  Vibration                       13                  14                  15
  Freq [cm^-1]                 452.2719            522.1335            546.0956
  Irrep                           Ag                  Au                  Bu
  Reduced mass [u]              4.5183              3.1776              3.4571
  Force const [mDyne/A]         0.5445              0.5104              0.6074

  Vibration                       16                  17                  18
  Freq [cm^-1]                 597.7303            663.0730            729.4718
  Irrep                           Au                  Ag                  Ag
  Reduced mass [u]              2.3270              2.9710              6.9256
  Force const [mDyne/A]         0.4898              0.7696              2.1713

  Vibration                       19                  20                  21
  Freq [cm^-1]                 791.1121            806.9298            861.5105
  Irrep                           Bg                  Bu                  Au
  Reduced mass [u]              1.9952              3.1499              1.4403
  Force const [mDyne/A]         0.7357              1.2084              0.6298

  Vibration                       22                  23                  24
  Freq [cm^-1]                 924.3586            937.4618            997.7893
  Irrep                           Ag                  Bg                  Bu
  Reduced mass [u]              4.6735              2.7314              6.8692
  Force const [mDyne/A]         2.3527              1.4143              4.0294

  Vibration                       25                  26                  27
  Freq [cm^-1]                1062.5346           1078.4895           1160.9989
  Irrep                           Au                  Bg                  Bu
  Reduced mass [u]              1.5075              1.2493              3.1638
  Force const [mDyne/A]         1.0027              0.8561              2.5126

  Vibration                       28                  29                  30
  Freq [cm^-1]                1181.6020           1181.6704           1197.5783
  Irrep                           Au                  Bg                  Bg
  Reduced mass [u]              1.3453              1.3471              1.2614
  Force const [mDyne/A]         1.1066              1.1083              1.0659

  Vibration                       31                  32                  33
  Freq [cm^-1]                1221.6250           1231.4627           1236.2962
  Irrep                           Au                  Ag                  Bu
  Reduced mass [u]              1.3118              1.5356              1.4641
  Force const [mDyne/A]         1.1535              1.3720              1.3185

  Vibration                       34                  35                  36
  Freq [cm^-1]                1280.8296           1281.0546           1328.2313
  Irrep                           Au                  Bg                  Bu
  Reduced mass [u]              1.0985              1.0998              1.6259
  Force const [mDyne/A]         1.0618              1.0634              1.6900

  Vibration                       37                  38                  39
  Freq [cm^-1]                1381.2449           1387.6574           1426.9486
  Irrep                           Ag                  Ag                  Bu
  Reduced mass [u]              2.6232              1.3023              1.9717
  Force const [mDyne/A]         2.9487              1.4775              2.3654

  Vibration                       40                  41                  42
  Freq [cm^-1]                1533.3272           1542.5883           1558.1696
  Irrep                           Ag                  Bu                  Ag
  Reduced mass [u]              1.4463              1.3671              1.3576
  Force const [mDyne/A]         2.0034              1.9166              1.9420

  Vibration                       43                  44                  45
  Freq [cm^-1]                1636.4862           1714.7033           1726.9331
  Irrep                           Bu                  Ag                  Bu
  Reduced mass [u]              2.1969              1.4031              1.3170
  Force const [mDyne/A]         3.4664              2.4305              2.3142

  Vibration                       46                  47                  48
  Freq [cm^-1]                1787.0580           1807.2473           1874.2273
  Irrep                           Bu                  Ag                  Ag
  Reduced mass [u]              2.1540              3.5324              4.5297
  Force const [mDyne/A]         4.0530              6.7976              9.3749

  Vibration                       49                  50                  51
  Freq [cm^-1]                1942.5199           1944.9577           3519.8241
  Irrep                           Ag                  Bu                  Bu
  Reduced mass [u]              2.9404              2.9545              1.0639
  Force const [mDyne/A]         6.5372              6.5850              7.7657

  Vibration                       52                  53                  54
  Freq [cm^-1]                3521.1425           3565.5418           3565.9634
  Irrep                           Ag                  Bu                  Ag
  Reduced mass [u]              1.0638              1.0994              1.0996
  Force const [mDyne/A]         7.7710              8.2351              8.2381

  Vibration                       55                  56                  57
  Freq [cm^-1]                3575.5260           3582.3371           3602.8536
  Irrep                           Bu                  Ag                  Bu
  Reduced mass [u]              1.0930              1.0946              1.0994
  Force const [mDyne/A]         8.2329              8.2762              8.4078

  Vibration                       58                  59                  60
  Freq [cm^-1]                3605.8119           3680.4280           3680.4335
  Irrep                           Ag                  Bu                  Ag
  Reduced mass [u]              1.0997              1.1198              1.1197
  Force const [mDyne/A]         8.4239              8.9369              8.9363

  ==> Thermochemistry Components <==

  Entropy, S
    Electronic S            0.000 [cal/(mol K)]        0.000 [J/(mol K)]       0.00000000 [mEh/K] (multiplicity = 1)
    Translational S        40.502 [cal/(mol K)]      169.460 [J/(mol K)]       0.06454379 [mEh/K] (mol. weight = 130.0783 [u], P = 101325.00 [Pa])
    Rotational S           28.143 [cal/(mol K)]      117.751 [J/(mol K)]       0.04484891 [mEh/K] (symmetry no. = 2)
    Vibrational S          14.370 [cal/(mol K)]       60.124 [J/(mol K)]       0.02290021 [mEh/K]
  Total S                  83.015 [cal/(mol K)]      347.335 [J/(mol K)]       0.13229291 [mEh/K]
  Correction S              0.000 [cal/(mol K)]        0.000 [J/(mol K)]       0.00000000 [mEh/K]

  Constant volume heat capacity, Cv
    Electronic Cv           0.000 [cal/(mol K)]        0.000 [J/(mol K)]       0.00000000 [mEh/K]
    Translational Cv        2.981 [cal/(mol K)]       12.472 [J/(mol K)]       0.00475022 [mEh/K]
    Rotational Cv           2.981 [cal/(mol K)]       12.472 [J/(mol K)]       0.00475022 [mEh/K]
    Vibrational Cv         22.921 [cal/(mol K)]       95.901 [J/(mol K)]       0.03652659 [mEh/K]
  Total Cv                 28.882 [cal/(mol K)]      120.844 [J/(mol K)]       0.04602702 [mEh/K]
  Correction Cv             0.000 [cal/(mol K)]        0.000 [J/(mol K)]       0.00000000 [mEh/K]

  Constant pressure heat capacity, Cp
    Electronic Cp           0.000 [cal/(mol K)]        0.000 [J/(mol K)]       0.00000000 [mEh/K]
    Translational Cp        4.968 [cal/(mol K)]       20.786 [J/(mol K)]       0.00791703 [mEh/K]
    Rotational Cp           2.981 [cal/(mol K)]       12.472 [J/(mol K)]       0.00475022 [mEh/K]
    Vibrational Cp         22.921 [cal/(mol K)]       95.901 [J/(mol K)]       0.03652659 [mEh/K]
  Total Cp                 30.870 [cal/(mol K)]      129.158 [J/(mol K)]       0.04919383 [mEh/K]
  Correction Cp             0.000 [cal/(mol K)]        0.000 [J/(mol K)]       0.00000000 [mEh/K]

  ==> Thermochemistry Energy Analysis <==

  Raw electronic energy, E0
  Total E0, Electronic energy at well bottom at 0 [K]                 -379.77011152 [Eh]

  Zero-point energy, ZPE_vib = Sum_i nu_i / 2
    Electronic ZPE          0.000 [kcal/mol]        0.000 [kJ/mol]       0.00000000 [Eh]
    Translational ZPE       0.000 [kcal/mol]        0.000 [kJ/mol]       0.00000000 [Eh]
    Rotational ZPE          0.000 [kcal/mol]        0.000 [kJ/mol]       0.00000000 [Eh]
    Vibrational ZPE       120.283 [kcal/mol]      503.263 [kJ/mol]       0.19168284 [Eh]       42069.520 [cm^-1]
  Correction ZPE          120.283 [kcal/mol]      503.263 [kJ/mol]       0.19168284 [Eh]       42069.520 [cm^-1]
  Total ZPE, Electronic energy at 0 [K]                               -379.57842868 [Eh]

  Thermal Energy, E (includes ZPE)
    Electronic E            0.000 [kcal/mol]        0.000 [kJ/mol]       0.00000000 [Eh]
    Translational E         0.889 [kcal/mol]        3.718 [kJ/mol]       0.00141628 [Eh]
    Rotational E            0.889 [kcal/mol]        3.718 [kJ/mol]       0.00141628 [Eh]
    Vibrational E         123.028 [kcal/mol]      514.751 [kJ/mol]       0.19605825 [Eh]
  Correction E            124.806 [kcal/mol]      522.188 [kJ/mol]       0.19889080 [Eh]
  Total E, Electronic energy at  298.15 [K]                           -379.57122071 [Eh]

  Enthalpy, H_trans = E_trans + k_B * T
    Electronic H            0.000 [kcal/mol]        0.000 [kJ/mol]       0.00000000 [Eh]
    Translational H         1.481 [kcal/mol]        6.197 [kJ/mol]       0.00236046 [Eh]
    Rotational H            0.889 [kcal/mol]        3.718 [kJ/mol]       0.00141628 [Eh]
    Vibrational H         123.028 [kcal/mol]      514.751 [kJ/mol]       0.19605825 [Eh]
  Correction H            125.398 [kcal/mol]      524.667 [kJ/mol]       0.19983499 [Eh]
  Total H, Enthalpy at  298.15 [K]                                    -379.57027653 [Eh]

  Gibbs free energy, G = H - T * S
    Electronic G            0.000 [kcal/mol]        0.000 [kJ/mol]       0.00000000 [Eh]
    Translational G       -10.594 [kcal/mol]      -44.327 [kJ/mol]      -0.01688327 [Eh]
    Rotational G           -7.502 [kcal/mol]      -31.389 [kJ/mol]      -0.01195543 [Eh]
    Vibrational G         118.744 [kcal/mol]      496.825 [kJ/mol]       0.18923055 [Eh]
  Correction G            100.647 [kcal/mol]      421.109 [kJ/mol]       0.16039185 [Eh]
  Total G, Free enthalpy at  298.15 [K]                               -379.60971966 [Eh]

*** Psi4 exiting successfully. Buy a developer a beer!
