                               Psi4 1.3.1 release

  ==> Input File <==

--------------------------------------------------------------------------
molecule dvb {
    1 2
    C    -1.4152533224   0.2302217854   0.0000000000
    C     1.4152533224  -0.2302217854   0.0000000000
    C    -0.4951331558   1.3144608674   0.0000000000
    C     0.4951331558  -1.3144608674   0.0000000000
    C     0.8894090436   1.0909493743   0.0000000000
    C    -0.8894090436  -1.0909493743   0.0000000000
    H    -0.8795511985   2.3437343748   0.0000000000
    H     0.8795511985  -2.3437343748   0.0000000000
    H     1.5779041557   1.9450061275   0.0000000000
    H    -1.5779041557  -1.9450061275   0.0000000000
    C     2.8845844962  -0.5210893778   0.0000000000
    C    -2.8845844962   0.5210893778   0.0000000000
    H     3.1403356810  -1.5919605685   0.0000000000
    H    -3.1403356810   1.5919605685   0.0000000000
    C     3.8800428103   0.3822535424   0.0000000000
    C    -3.8800428103  -0.3822535424   0.0000000000
    H     3.6946765858   1.4624389570   0.0000000000
    H    -3.6946765858  -1.4624389570   0.0000000000
    H     4.9316453546   0.0711049543   0.0000000000
    H    -4.9316453546  -0.0711049543   0.0000000000
}

set {
    basis sto-3g
    reference uhf
    print_basis true
    print_mos true
}

b3lyp_e, b3lyp_wfn = energy('b3lyp', return_wfn=True)
oeprop(b3lyp_wfn, 'MULLIKEN_CHARGES', 'LOWDIN_CHARGES', 'MULTIPOLES(5)')
--------------------------------------------------------------------------

    Molecular point group: c2h

    Geometry (in Angstrom), charge = 1, multiplicity = 2:

       Center              X                  Y                   Z               Mass
    ------------   -----------------  -----------------  -----------------  -----------------
         C           -1.415253322400     0.230221785400     0.000000000000    12.000000000000
         C            1.415253322400    -0.230221785400     0.000000000000    12.000000000000
         C           -0.495133155800     1.314460867400     0.000000000000    12.000000000000
         C            0.495133155800    -1.314460867400     0.000000000000    12.000000000000
         C            0.889409043600     1.090949374300     0.000000000000    12.000000000000
         C           -0.889409043600    -1.090949374300     0.000000000000    12.000000000000
         H           -0.879551198500     2.343734374800     0.000000000000     1.007825032230
         H            0.879551198500    -2.343734374800     0.000000000000     1.007825032230
         H            1.577904155700     1.945006127500     0.000000000000     1.007825032230
         H           -1.577904155700    -1.945006127500     0.000000000000     1.007825032230
         C            2.884584496200    -0.521089377800     0.000000000000    12.000000000000
         C           -2.884584496200     0.521089377800     0.000000000000    12.000000000000
         H            3.140335681000    -1.591960568500     0.000000000000     1.007825032230
         H           -3.140335681000     1.591960568500     0.000000000000     1.007825032230
         C            3.880042810300     0.382253542400     0.000000000000    12.000000000000
         C           -3.880042810300    -0.382253542400     0.000000000000    12.000000000000
         H            3.694676585800     1.462438957000     0.000000000000     1.007825032230
         H           -3.694676585800    -1.462438957000     0.000000000000     1.007825032230
         H            4.931645354600     0.071104954300     0.000000000000     1.007825032230
         H           -4.931645354600    -0.071104954300     0.000000000000     1.007825032230

  Charge       = 1
  Multiplicity = 2
  Basis Set: STO-3G
    Blend: STO-3G
  Basis Set: (STO-3G AUX)
    Blend: DEF2-SVP-JKFIT

    Orbital Energies [Eh]
    ---------------------

    Alpha Occupied:

       1Bu   -10.253863     1Ag   -10.253812     2Bu   -10.219802
       2Ag   -10.219761     3Bu   -10.218326     3Ag   -10.218229
       4Bu   -10.217851     4Ag   -10.217847     5Bu   -10.215526
       5Ag   -10.215526     6Ag    -1.020773     6Bu    -0.961941
       7Ag    -0.921638     7Bu    -0.899268     8Bu    -0.876745
       8Ag    -0.787128     9Ag    -0.759879     9Bu    -0.722512
      10Ag    -0.703604    11Ag    -0.650481    10Bu    -0.634984
      11Bu    -0.604003    12Bu    -0.596098    12Ag    -0.587827
      13Bu    -0.568858    14Bu    -0.552252    13Ag    -0.537112
       1Au    -0.533641    15Bu    -0.501066    14Ag    -0.493313
      15Ag    -0.482727     1Bg    -0.473622     2Au    -0.417914
       2Bg    -0.394351     3Bg    -0.369713

    Alpha Virtual:

       3Au    -0.177450     4Au    -0.111528     4Bg    -0.094356
       5Au    -0.029620     5Bg     0.059961    16Ag     0.139704
      16Bu     0.148995    17Bu     0.179247    17Ag     0.196442
      18Ag     0.214667    18Bu     0.220337    19Ag     0.239663
      19Bu     0.240564    20Bu     0.262992    20Ag     0.285295
      21Ag     0.319779    21Bu     0.344271    22Ag     0.379979
      22Bu     0.397829    23Bu     0.425459    23Ag     0.438158
      24Ag     0.477752    24Bu     0.506042    25Ag     0.567613
      25Bu     0.581737

    Beta Occupied:

       1Bu   -10.250887     1Ag   -10.250841     2Bu   -10.219474
       2Ag   -10.219437     3Ag   -10.218695     3Bu   -10.218695
       4Bu   -10.218123     4Ag   -10.218021     5Ag   -10.211062
       5Bu   -10.211062     6Ag    -1.014718     6Bu    -0.954504
       7Ag    -0.913763     7Bu    -0.897620     8Bu    -0.864547
       8Ag    -0.781839     9Ag    -0.755816     9Bu    -0.718616
      10Ag    -0.700471    11Ag    -0.648283    10Bu    -0.632912
      11Bu    -0.601294    12Bu    -0.593265    12Ag    -0.584928
      13Bu    -0.568154    14Bu    -0.549303    13Ag    -0.535160
       1Au    -0.517369    15Bu    -0.499449    14Ag    -0.491809
      15Ag    -0.481158     1Bg    -0.450802     2Bg    -0.391168
       2Au    -0.388746

    Beta Virtual:

       3Bg    -0.300481     3Au    -0.147017     4Au    -0.103425
       4Bg    -0.073648     5Au    -0.008256     5Bg     0.076151
      16Ag     0.142156    16Bu     0.150870    17Bu     0.181146
      17Ag     0.197918    18Ag     0.220336    18Bu     0.225725
      19Bu     0.242012    19Ag     0.246315    20Bu     0.270006
      20Ag     0.290444    21Ag     0.323507    21Bu     0.347724
      22Ag     0.381476    22Bu     0.400009    23Bu     0.429780
      23Ag     0.440725    24Ag     0.481531    24Bu     0.511458
      25Ag     0.571352    25Bu     0.584878

    Final Occupation by Irrep:
             Ag    Bg    Au    Bu
    DOCC [    15,    2,    2,   15 ]
    SOCC [     0,    1,    0,    0 ]

  @DF-UKS Final Energy:  -382.08410943870763

   => Energetics <=

    Nuclear Repulsion Energy =            445.9369798670570049
    One-Electron Energy =               -1386.6343952149009056
    Two-Electron Energy =                 605.0060356246406172
    DFT Exchange-Correlation Energy =     -46.3927297155043590
    Empirical Dispersion Energy =           0.0000000000000000
    VV10 Nonlocal Energy =                  0.0000000000000000
    Total Energy =                       -382.0841094387075714

  UHF NO Occupations:
  HONO-2 :    2 Bg 1.9974738
  HONO-1 :    2 Au 1.9899397
  HONO-0 :    3 Bg 1.0000000
  LUNO+0 :    3 Au 0.0100603
  LUNO+1 :    4 Bg 0.0025262
  LUNO+2 :    4 Au 0.0008988
  LUNO+3 :   16 Ag 0.0000999

Computation Completed

Properties will be evaluated at   0.000000,   0.000000,   0.000000 [a0]

Properties computed using the SCF density matrix

  Nuclear Dipole Moment: [e a0]
     X:     0.0000      Y:     0.0000      Z:     0.0000

  Electronic Dipole Moment: [e a0]
     X:     0.0000      Y:     0.0000      Z:     0.0000

  Dipole Moment: [e a0]
     X:     0.0000      Y:     0.0000      Z:     0.0000     Total:     0.0000

  Dipole Moment: [D]
     X:     0.0000      Y:     0.0000      Z:     0.0000     Total:     0.0000

  ==> Alpha-Spin Molecular Orbitals <==

                            1            2            3            4            5

 1    C1 s0         0.7002685    0.7002922    0.0098966    0.0062503    0.0057932
 2    C1 s0         0.0312628    0.0310686   -0.0075676   -0.0041123   -0.0046851
 3    C1 p0         0.0000000    0.0000000    0.0000000    0.0000000    0.0000000
 4    C1 p+1        0.0010238    0.0007504   -0.0024030   -0.0008607   -0.0025932
 5    C1 p-1       -0.0000442    0.0000057    0.0032259    0.0048214   -0.0040419
 6    C2 s0        -0.7002685    0.7002922   -0.0098966    0.0062503   -0.0057932
 7    C2 s0        -0.0312628    0.0310686    0.0075676   -0.0041123    0.0046851
 8    C2 p0         0.0000000    0.0000000    0.0000000    0.0000000    0.0000000
 9    C2 p+1        0.0010238   -0.0007504   -0.0024030    0.0008607   -0.0025932
 10   C2 p-1       -0.0000442   -0.0000057    0.0032259   -0.0048214   -0.0040419
 11   C3 s0        -0.0070210   -0.0074441    0.1539684   -0.1782426    0.6831609
 12   C3 s0        -0.0071257   -0.0065325    0.0134220   -0.0140975    0.0287726
 13   C3 p0         0.0000000    0.0000000    0.0000000    0.0000000    0.0000000
 14   C3 p+1        0.0026965    0.0029172    0.0043555   -0.0043204   -0.0004667
 15   C3 p-1        0.0035409    0.0033641   -0.0010578    0.0009887   -0.0009085
 16   C4 s0         0.0070210   -0.0074441   -0.1539684   -0.1782426   -0.6831609
 17   C4 s0         0.0071257   -0.0065325   -0.0134220   -0.0140975   -0.0287726
 18   C4 p0         0.0000000    0.0000000    0.0000000    0.0000000    0.0000000
 19   C4 p+1        0.0026965   -0.0029172    0.0043555    0.0043204   -0.0004667
 20   C4 p-1        0.0035409   -0.0033641   -0.0010578   -0.0009887   -0.0009085
 21   C5 s0         0.0073475   -0.0077285   -0.6830576    0.6771547    0.1549655
 22   C5 s0         0.0070946   -0.0064849   -0.0317795    0.0314763    0.0002651
 23   C5 p0         0.0000000    0.0000000    0.0000000    0.0000000    0.0000000
 24   C5 p+1        0.0014273   -0.0017043    0.0017628   -0.0017143    0.0041064
 25   C5 p-1       -0.0041883    0.0040716    0.0007431   -0.0004302   -0.0007566
 26   C6 s0        -0.0073475   -0.0077285    0.6830576    0.6771547   -0.1549655
 27   C6 s0        -0.0070946   -0.0064849    0.0317795    0.0314763   -0.0002651
 28   C6 p0         0.0000000    0.0000000    0.0000000    0.0000000    0.0000000
 29   C6 p+1        0.0014273    0.0017043    0.0017628    0.0017143    0.0041064
 30   C6 p-1       -0.0041883   -0.0040716    0.0007431    0.0004302   -0.0007566
 31   H7 s0         0.0002229    0.0001108   -0.0015535    0.0016527   -0.0060430
 32   H8 s0        -0.0002229    0.0001108    0.0015535    0.0016527    0.0060430
 33   H9 s0        -0.0002182    0.0001087    0.0061627   -0.0061749   -0.0012084
 34   H10 s0        0.0002182    0.0001087   -0.0061627   -0.0061749    0.0012084
 35   C11 s0        0.0088363   -0.0089453    0.0017079   -0.0040285    0.0136260
 36   C11 s0        0.0058776   -0.0059396   -0.0001606   -0.0001057    0.0004568
 37   C11 p0        0.0000000    0.0000000    0.0000000    0.0000000    0.0000000
 38   C11 p+1      -0.0039859    0.0040287    0.0000532    0.0000512    0.0000421
 39   C11 p-1       0.0008653   -0.0008736   -0.0000668    0.0001165    0.0000053
 40   C12 s0       -0.0088363   -0.0089453   -0.0017079   -0.0040285   -0.0136260
 41   C12 s0       -0.0058776   -0.0059396    0.0001606   -0.0001057   -0.0004568
 42   C12 p0        0.0000000    0.0000000    0.0000000    0.0000000    0.0000000
 43   C12 p+1      -0.0039859   -0.0040287    0.0000532   -0.0000512    0.0000421
 44   C12 p-1       0.0008653    0.0008736   -0.0000668   -0.0001165    0.0000053
 45   H13 s0       -0.0001536    0.0001616    0.0000268   -0.0000124   -0.0000774
 46   H14 s0        0.0001536    0.0001616   -0.0000268   -0.0000124    0.0000774
 47   C15 s0       -0.0000366    0.0000436    0.0027188   -0.0020435   -0.0004461
 48   C15 s0       -0.0002729    0.0002730    0.0001915   -0.0001320   -0.0001186
 49   C15 p0        0.0000000    0.0000000    0.0000000    0.0000000    0.0000000
 50   C15 p+1       0.0001898   -0.0001947   -0.0000687    0.0000376    0.0000408
 51   C15 p-1      -0.0000832    0.0000837    0.0000516   -0.0000528    0.0000417
 52   C16 s0        0.0000366    0.0000436   -0.0027188   -0.0020435    0.0004461
 53   C16 s0        0.0002729    0.0002730   -0.0001915   -0.0001320    0.0001186
 54   C16 p0        0.0000000    0.0000000    0.0000000    0.0000000    0.0000000
 55   C16 p+1       0.0001898    0.0001947   -0.0000687   -0.0000376    0.0000408
 56   C16 p-1      -0.0000832   -0.0000837    0.0000516    0.0000528    0.0000417
 57   H17 s0        0.0001406   -0.0001331   -0.0001926    0.0001908    0.0000257
 58   H18 s0       -0.0001406   -0.0001331    0.0001926    0.0001908   -0.0000257
 59   H19 s0        0.0000238   -0.0000229   -0.0000025    0.0000017    0.0000039
 60   H20 s0       -0.0000238   -0.0000229    0.0000025    0.0000017   -0.0000039

            Ene   -10.2538629  -10.2538124  -10.2198024  -10.2197612  -10.2183264
            Sym            Bu           Ag           Bu           Ag           Bu
            Occ             1            1            1            1            1

                            6            7            8            9           10

 1    C1 s0         0.0095975    0.0099909    0.0108089    0.0008577    0.0009038
 2    C1 s0        -0.0066893   -0.0051823   -0.0056306   -0.0002474   -0.0002699
 3    C1 p0         0.0000000    0.0000000    0.0000000    0.0000000    0.0000000
 4    C1 p+1       -0.0034785    0.0040079    0.0037575    0.0002437    0.0002333
 5    C1 p-1       -0.0021384   -0.0006963   -0.0007637   -0.0000662   -0.0000730
 6    C2 s0         0.0095975   -0.0099909    0.0108089   -0.0008577    0.0009038
 7    C2 s0        -0.0066893    0.0051823   -0.0056306    0.0002474   -0.0002699
 8    C2 p0         0.0000000    0.0000000    0.0000000    0.0000000    0.0000000
 9    C2 p+1        0.0034785    0.0040079   -0.0037575    0.0002437   -0.0002333
 10   C2 p-1        0.0021384   -0.0006963    0.0007637   -0.0000662    0.0000730
 11   C3 s0         0.6753310    0.0135191    0.0529821    0.0013379    0.0037268
 12   C3 s0         0.0280733    0.0006873    0.0021913    0.0000713    0.0000557
 13   C3 p0         0.0000000    0.0000000    0.0000000    0.0000000    0.0000000
 14   C3 p+1       -0.0007185   -0.0000269   -0.0001556    0.0000918    0.0000071
 15   C3 p-1       -0.0005399   -0.0000011    0.0000681    0.0000033    0.0000237
 16   C4 s0         0.6753310   -0.0135191    0.0529821   -0.0013379    0.0037268
 17   C4 s0         0.0280733   -0.0006873    0.0021913   -0.0000713    0.0000557
 18   C4 p0         0.0000000    0.0000000    0.0000000    0.0000000    0.0000000
 19   C4 p+1        0.0007185   -0.0000269    0.0001556    0.0000918   -0.0000071
 20   C4 p-1        0.0005399   -0.0000011   -0.0000681    0.0000033   -0.0000237
 21   C5 s0         0.1782759    0.0016850    0.0178993   -0.0026375    0.0034630
 22   C5 s0         0.0016157   -0.0002252    0.0003975   -0.0000895    0.0000568
 23   C5 p0         0.0000000    0.0000000    0.0000000    0.0000000    0.0000000
 24   C5 p+1        0.0040788    0.0000272    0.0004416    0.0001119   -0.0000636
 25   C5 p-1       -0.0007332   -0.0000336    0.0000228   -0.0000068    0.0000046
 26   C6 s0         0.1782759   -0.0016850    0.0178993    0.0026375    0.0034630
 27   C6 s0         0.0016157    0.0002252    0.0003975    0.0000895    0.0000568
 28   C6 p0         0.0000000    0.0000000    0.0000000    0.0000000    0.0000000
 29   C6 p+1       -0.0040788    0.0000272   -0.0004416    0.0001119    0.0000636
 30   C6 p-1        0.0007332   -0.0000336   -0.0000228   -0.0000068   -0.0000046
 31   H7 s0        -0.0061015   -0.0001297   -0.0005044   -0.0000227   -0.0000472
 32   H8 s0        -0.0061015    0.0001297   -0.0005044    0.0000227   -0.0000472
 33   H9 s0        -0.0015721    0.0001352   -0.0003267   -0.0000738    0.0000656
 34   H10 s0       -0.0015721   -0.0001352   -0.0003267    0.0000738    0.0000656
 35   C11 s0       -0.0560318   -0.6976747    0.6955357   -0.0610161    0.0611176
 36   C11 s0       -0.0023621   -0.0312701    0.0311703    0.0046771   -0.0046735
 37   C11 p0        0.0000000    0.0000000    0.0000000    0.0000000    0.0000000
 38   C11 p+1      -0.0000332   -0.0012352    0.0012488    0.0033312   -0.0033293
 39   C11 p-1      -0.0000994   -0.0011668    0.0011614    0.0030708   -0.0030704
 40   C12 s0       -0.0560318    0.6976747    0.6955357    0.0610161    0.0611176
 41   C12 s0       -0.0023621    0.0312701    0.0311703   -0.0046771   -0.0046735
 42   C12 p0        0.0000000    0.0000000    0.0000000    0.0000000    0.0000000
 43   C12 p+1       0.0000332   -0.0012352   -0.0012488    0.0033312    0.0033293
 44   C12 p-1       0.0000994   -0.0011668   -0.0011614    0.0030708    0.0030704
 45   H13 s0        0.0004242    0.0063229   -0.0063094    0.0004266   -0.0004282
 46   H14 s0        0.0004242   -0.0063229   -0.0063094   -0.0004266   -0.0004282
 47   C15 s0        0.0003678    0.0601458   -0.0604149   -0.6979228    0.6979019
 48   C15 s0        0.0005279    0.0099281   -0.0099231   -0.0302714    0.0302689
 49   C15 p0        0.0000000    0.0000000    0.0000000    0.0000000    0.0000000
 50   C15 p+1      -0.0001896   -0.0035304    0.0035265    0.0008342   -0.0008332
 51   C15 p-1      -0.0002548   -0.0031213    0.0031116    0.0007628   -0.0007623
 52   C16 s0        0.0003678   -0.0601458   -0.0604149    0.6979228    0.6979019
 53   C16 s0        0.0005279   -0.0099281   -0.0099231    0.0302714    0.0302689
 54   C16 p0        0.0000000    0.0000000    0.0000000    0.0000000    0.0000000
 55   C16 p+1       0.0001896   -0.0035304   -0.0035265    0.0008342    0.0008332
 56   C16 p-1       0.0002548   -0.0031213   -0.0031116    0.0007628    0.0007623
 57   H17 s0        0.0000035   -0.0006679    0.0006725    0.0063141   -0.0063139
 58   H18 s0        0.0000035    0.0006679    0.0006725   -0.0063141   -0.0063139
 59   H19 s0       -0.0000337   -0.0006839    0.0006843    0.0062984   -0.0062983
 60   H20 s0       -0.0000337    0.0006839    0.0006843   -0.0062984   -0.0062983

            Ene   -10.2182285  -10.2178507  -10.2178472  -10.2155264  -10.2155263
            Sym            Ag           Bu           Ag           Bu           Ag
            Occ             1            1            1            1            1

                           11           12           13           14           15

 1    C1 s0         0.1123601    0.1122952    0.0052691    0.0174132    0.0954046
 2    C1 s0        -0.2906212   -0.3021420   -0.0173245   -0.0482878   -0.2668805
 3    C1 p0         0.0000000    0.0000000    0.0000000    0.0000000    0.0000000
 4    C1 p+1       -0.0478407    0.0254861    0.1005035   -0.0277504   -0.0670644
 5    C1 p-1        0.0075943   -0.0008099   -0.0090097   -0.1352806    0.0267067
 6    C2 s0         0.1123601   -0.1122952    0.0052691   -0.0174132   -0.0954046
 7    C2 s0        -0.2906212    0.3021420   -0.0173245    0.0482878    0.2668805
 8    C2 p0         0.0000000    0.0000000    0.0000000    0.0000000    0.0000000
 9    C2 p+1        0.0478407    0.0254861   -0.1005035   -0.0277504   -0.0670644
 10   C2 p-1       -0.0075943   -0.0008099    0.0090097   -0.1352806    0.0267067
 11   C3 s0         0.0956288    0.0408074   -0.0439218    0.1345558    0.0323349
 12   C3 s0        -0.2392043   -0.1057604    0.1147739   -0.3639215   -0.0882694
 13   C3 p0         0.0000000    0.0000000    0.0000000    0.0000000    0.0000000
 14   C3 p+1       -0.0122238    0.0621078    0.0345391   -0.0512330    0.0874775
 15   C3 p-1        0.0611317    0.0334817   -0.0200202    0.0114078    0.0406842
 16   C4 s0         0.0956288   -0.0408074   -0.0439218   -0.1345558   -0.0323349
 17   C4 s0        -0.2392043    0.1057604    0.1147739    0.3639215    0.0882694
 18   C4 p0         0.0000000    0.0000000    0.0000000    0.0000000    0.0000000
 19   C4 p+1        0.0122238    0.0621078   -0.0345391   -0.0512330    0.0874775
 20   C4 p-1       -0.0611317    0.0334817    0.0200202    0.0114078    0.0406842
 21   C5 s0         0.0961612   -0.0467015   -0.0388534    0.1182811   -0.0748890
 22   C5 s0        -0.2411857    0.1218316    0.1011922   -0.3204514    0.2052530
 23   C5 p0         0.0000000    0.0000000    0.0000000    0.0000000    0.0000000
 24   C5 p+1        0.0302162    0.0483066   -0.0468721    0.0692464    0.0391923
 25   C5 p-1        0.0543574   -0.0515220   -0.0060750   -0.0256805   -0.0573576
 26   C6 s0         0.0961612    0.0467015   -0.0388534   -0.1182811    0.0748890
 27   C6 s0        -0.2411857   -0.1218316    0.1011922    0.3204514   -0.2052530
 28   C6 p0         0.0000000    0.0000000    0.0000000    0.0000000    0.0000000
 29   C6 p+1       -0.0302162    0.0483066    0.0468721    0.0692464    0.0391923
 30   C6 p-1       -0.0543574   -0.0515220    0.0060750   -0.0256805   -0.0573576
 31   H7 s0        -0.0373812   -0.0235158    0.0191127   -0.0869816   -0.0208970
 32   H8 s0        -0.0373812    0.0235158    0.0191127    0.0869816    0.0208970
 33   H9 s0        -0.0385945    0.0285488    0.0129931   -0.0788076    0.0469509
 34   H10 s0       -0.0385945   -0.0285488    0.0129931    0.0788076   -0.0469509
 35   C11 s0        0.0465527   -0.1081222    0.1194865    0.0022932    0.0615641
 36   C11 s0       -0.1180720    0.2789224   -0.3123610   -0.0051458   -0.1622417
 37   C11 p0        0.0000000    0.0000000    0.0000000    0.0000000    0.0000000
 38   C11 p+1       0.0289983   -0.0131927   -0.0579051   -0.0232580   -0.1240490
 39   C11 p-1      -0.0147216    0.0399995   -0.0562394   -0.0246776   -0.0465845
 40   C12 s0        0.0465527    0.1081222    0.1194865   -0.0022932   -0.0615641
 41   C12 s0       -0.1180720   -0.2789224   -0.3123610    0.0051458    0.1622417
 42   C12 p0        0.0000000    0.0000000    0.0000000    0.0000000    0.0000000
 43   C12 p+1      -0.0289983   -0.0131927    0.0579051   -0.0232580   -0.1240490
 44   C12 p-1       0.0147216    0.0399995    0.0562394   -0.0246776   -0.0465845
 45   H13 s0       -0.0203579    0.0542287   -0.0656807    0.0070419   -0.0380162
 46   H14 s0       -0.0203579   -0.0542287   -0.0656807   -0.0070419    0.0380162
 47   C15 s0        0.0227900   -0.0762469    0.1201375    0.0184989    0.1138596
 48   C15 s0       -0.0588091    0.2008911   -0.3225048   -0.0496032   -0.3135659
 49   C15 p0        0.0000000    0.0000000    0.0000000    0.0000000    0.0000000
 50   C15 p+1       0.0204157   -0.0533722    0.0636131    0.0090029    0.0330775
 51   C15 p-1       0.0121260   -0.0374045    0.0536373    0.0009339    0.0425469
 52   C16 s0        0.0227900    0.0762469    0.1201375   -0.0184989   -0.1138596
 53   C16 s0       -0.0588091   -0.2008911   -0.3225048    0.0496032    0.3135659
 54   C16 p0        0.0000000    0.0000000    0.0000000    0.0000000    0.0000000
 55   C16 p+1      -0.0204157   -0.0533722   -0.0636131    0.0090029    0.0330775
 56   C16 p-1      -0.0121260   -0.0374045   -0.0536373    0.0009339    0.0425469
 57   H17 s0       -0.0111862    0.0400303   -0.0669222   -0.0149464   -0.0690581
 58   H18 s0       -0.0111862   -0.0400303   -0.0669222    0.0149464    0.0690581
 59   H19 s0       -0.0080091    0.0338531   -0.0635370   -0.0099897   -0.0743828
 60   H20 s0       -0.0080091   -0.0338531   -0.0635370    0.0099897    0.0743828

            Ene    -1.0207725   -0.9619411   -0.9216380   -0.8992679   -0.8767453
            Sym            Ag           Bu           Ag           Bu           Bu
            Occ             1            1            1            1            1

                           16           17           18           19           20

 1    C1 s0         0.0750349    0.0527915    0.0087801    0.0494116    0.0307356
 2    C1 s0        -0.2240662   -0.1601594   -0.0248319   -0.1508186   -0.1037110
 3    C1 p0         0.0000000    0.0000000    0.0000000    0.0000000    0.0000000
 4    C1 p+1        0.0799462    0.0732006   -0.1613107   -0.1622759    0.1265825
 5    C1 p-1       -0.1324363    0.2043351    0.0624366   -0.0099090   -0.0531202
 6    C2 s0         0.0750349    0.0527915   -0.0087801    0.0494116    0.0307356
 7    C2 s0        -0.2240662   -0.1601594    0.0248319   -0.1508186   -0.1037110
 8    C2 p0         0.0000000    0.0000000    0.0000000    0.0000000    0.0000000
 9    C2 p+1       -0.0799462   -0.0732006   -0.1613107    0.1622759   -0.1265825
 10   C2 p-1        0.1324363   -0.2043351    0.0624366    0.0099090    0.0531202
 11   C3 s0         0.0005860   -0.1130727    0.0500420   -0.0158517    0.0165077
 12   C3 s0        -0.0028824    0.3343540   -0.1535985    0.0545694   -0.0622364
 13   C3 p0         0.0000000    0.0000000    0.0000000    0.0000000    0.0000000
 14   C3 p+1        0.1708102   -0.0369929   -0.0005754    0.0845587    0.1357598
 15   C3 p-1        0.0307115    0.0575223    0.0129460    0.1904572   -0.1321532
 16   C4 s0         0.0005860   -0.1130727   -0.0500420   -0.0158517    0.0165077
 17   C4 s0        -0.0028824    0.3343540    0.1535985    0.0545694   -0.0622364
 18   C4 p0         0.0000000    0.0000000    0.0000000    0.0000000    0.0000000
 19   C4 p+1       -0.1708102    0.0369929   -0.0005754   -0.0845587   -0.1357598
 20   C4 p-1       -0.0307115   -0.0575223    0.0129460   -0.1904572    0.1321532
 21   C5 s0        -0.0866448    0.0570124   -0.0298835   -0.0528805   -0.0153326
 22   C5 s0         0.2490872   -0.1698761    0.0914936    0.1707255    0.0421354
 23   C5 p0         0.0000000    0.0000000    0.0000000    0.0000000    0.0000000
 24   C5 p+1       -0.0321666   -0.1788509    0.0786989    0.0287577   -0.1315167
 25   C5 p-1        0.0574676    0.0886636   -0.0432273    0.2035172   -0.0916858
 26   C6 s0        -0.0866448    0.0570124    0.0298835   -0.0528805   -0.0153326
 27   C6 s0         0.2490872   -0.1698761   -0.0914936    0.1707255    0.0421354
 28   C6 p0         0.0000000    0.0000000    0.0000000    0.0000000    0.0000000
 29   C6 p+1        0.0321666    0.1788509    0.0786989   -0.0287577    0.1315167
 30   C6 p-1       -0.0574676   -0.0886636   -0.0432273   -0.2035172    0.0916858
 31   H7 s0        -0.0157943    0.1442403   -0.0420706    0.1023775   -0.1223719
 32   H8 s0        -0.0157943    0.1442403    0.0420706    0.1023775   -0.1223719
 33   H9 s0         0.0966597   -0.0771480    0.0475554    0.1547962   -0.0883803
 34   H10 s0        0.0966597   -0.0771480   -0.0475554    0.1547962   -0.0883803
 35   C11 s0        0.0491205    0.0052566    0.1000431   -0.0600671   -0.0491041
 36   C11 s0       -0.1481848   -0.0174698   -0.3092585    0.1855689    0.1580365
 37   C11 p0        0.0000000    0.0000000    0.0000000    0.0000000    0.0000000
 38   C11 p+1       0.1368874    0.0811545    0.0617814   -0.0170283    0.1822207
 39   C11 p-1       0.0758750   -0.0424421    0.1097745   -0.0610203   -0.1081548
 40   C12 s0        0.0491205    0.0052566   -0.1000431   -0.0600671   -0.0491041
 41   C12 s0       -0.1481848   -0.0174698    0.3092585    0.1855689    0.1580365
 42   C12 p0        0.0000000    0.0000000    0.0000000    0.0000000    0.0000000
 43   C12 p+1      -0.1368874   -0.0811545    0.0617814    0.0170283   -0.1822207
 44   C12 p-1      -0.0758750    0.0424421    0.1097745    0.0610203    0.1081548
 45   H13 s0       -0.0656775    0.0280619   -0.1528285    0.0999206    0.1458766
 46   H14 s0       -0.0656775    0.0280619    0.1528285    0.0999206    0.1458766
 47   C15 s0       -0.0813223   -0.0402392   -0.0849729    0.0549863    0.0245788
 48   C15 s0        0.2389559    0.1225308    0.2683684   -0.1774742   -0.0912104
 49   C15 p0        0.0000000    0.0000000    0.0000000    0.0000000    0.0000000
 50   C15 p+1       0.0264446    0.0416194    0.0878568   -0.0776816   -0.0133085
 51   C15 p-1       0.0250679   -0.0169311    0.1174150   -0.0741909   -0.2282638
 52   C16 s0       -0.0813223   -0.0402392    0.0849729    0.0549863    0.0245788
 53   C16 s0        0.2389559    0.1225308   -0.2683684   -0.1774742   -0.0912104
 54   C16 p0        0.0000000    0.0000000    0.0000000    0.0000000    0.0000000
 55   C16 p+1      -0.0264446   -0.0416194    0.0878568    0.0776816    0.0133085
 56   C16 p-1      -0.0250679    0.0169311    0.1174150    0.0741909    0.2282638
 57   H17 s0        0.0861266    0.0222275    0.1472486   -0.0878043   -0.1779378
 58   H18 s0        0.0861266    0.0222275   -0.1472486   -0.0878043   -0.1779378
 59   H19 s0        0.0795858    0.0573860    0.1145015   -0.0879657   -0.0037318
 60   H20 s0        0.0795858    0.0573860   -0.1145015   -0.0879657   -0.0037318

            Ene    -0.7871278   -0.7598785   -0.7225125   -0.7036041   -0.6504807
            Sym            Ag           Ag           Bu           Ag           Ag
            Occ             1            1            1            1            1

                           21           22           23           24           25

 1    C1 s0         0.0160633    0.0501734    0.0494097    0.0176164    0.0036496
 2    C1 s0        -0.0565655   -0.1752215   -0.1731749   -0.0601283   -0.0130633
 3    C1 p0         0.0000000    0.0000000    0.0000000    0.0000000    0.0000000
 4    C1 p+1        0.1475601    0.0721946   -0.1549178    0.0021240   -0.1035475
 5    C1 p-1        0.1739076   -0.1814597    0.1444831   -0.0108385   -0.1020842
 6    C2 s0        -0.0160633   -0.0501734   -0.0494097    0.0176164   -0.0036496
 7    C2 s0         0.0565655    0.1752215    0.1731749   -0.0601283    0.0130633
 8    C2 p0         0.0000000    0.0000000    0.0000000    0.0000000    0.0000000
 9    C2 p+1        0.1475601    0.0721946   -0.1549178   -0.0021240   -0.1035475
 10   C2 p-1        0.1739076   -0.1814597    0.1444831    0.0108385   -0.1020842
 11   C3 s0        -0.0159266   -0.0485146   -0.0267303   -0.0245609    0.0212927
 12   C3 s0         0.0544220    0.1665784    0.0960039    0.0830803   -0.0656872
 13   C3 p0         0.0000000    0.0000000    0.0000000    0.0000000    0.0000000
 14   C3 p+1       -0.2150156    0.0894279   -0.0799312    0.0706670   -0.1197486
 15   C3 p-1       -0.0238852    0.1835256    0.1148814   -0.0069386    0.3345285
 16   C4 s0         0.0159266    0.0485146    0.0267303   -0.0245609   -0.0212927
 17   C4 s0        -0.0544220   -0.1665784   -0.0960039    0.0830803    0.0656872
 18   C4 p0         0.0000000    0.0000000    0.0000000    0.0000000    0.0000000
 19   C4 p+1       -0.2150156    0.0894279   -0.0799312   -0.0706670   -0.1197486
 20   C4 p-1       -0.0238852    0.1835256    0.1148814    0.0069386    0.3345285

 Dipole X            :          0.0000000            0.0000000            0.0000000
 Dipole Y            :          0.0000000            0.0000000            0.0000000
 Dipole Z            :          0.0000000            0.0000000            0.0000000

  Lowdin Charges: (a.u.)
   Center  Symbol    Alpha    Beta     Spin     Total
       1     C     3.06167  2.85841  0.20326  0.07991
       2     C     3.06167  2.85841  0.20326  0.07991
       3     C     3.01085  2.98978  0.02107 -0.00064
       4     C     3.01085  2.98978  0.02107 -0.00064
       5     C     3.01585  2.98608  0.02977 -0.00194
       6     C     3.01585  2.98608  0.02977 -0.00194
       7     H     0.45946  0.46036 -0.00090  0.08017
       8     H     0.45946  0.46036 -0.00090  0.08017
       9     H     0.46075  0.46191 -0.00116  0.07734
      10     H     0.46075  0.46191 -0.00116  0.07734
      11     C     2.97678  3.02149 -0.04471  0.00172
      12     C     2.97678  3.02149 -0.04471  0.00172
      13     H     0.46205  0.46048  0.00157  0.07747
      14     H     0.46205  0.46048  0.00157  0.07747
      15     C     3.14896  2.83660  0.31236  0.01444
      16     C     3.14896  2.83660  0.31236  0.01444
      17     H     0.45533  0.46579 -0.01045  0.07888
      18     H     0.45533  0.46579 -0.01045  0.07888
      19     H     0.44828  0.45909 -0.01081  0.09264
      20     H     0.44828  0.45909 -0.01081  0.09264

  Total alpha = 35.00000, Total beta = 34.00000, Total charge =  1.00000

*** Psi4 exiting successfully. Buy a developer a beer!
