                               Psi4 1.3.1 release

  ==> Input File <==

--------------------------------------------------------------------------
molecule dvb {
    1 2
    C    -1.4152533224   0.2302217854   0.0000000000
    C     1.4152533224  -0.2302217854   0.0000000000
    C    -0.4951331558   1.3144608674   0.0000000000
    C     0.4951331558  -1.3144608674   0.0000000000
    C     0.8894090436   1.0909493743   0.0000000000
    C    -0.8894090436  -1.0909493743   0.0000000000
    H    -0.8795511985   2.3437343748   0.0000000000
    H     0.8795511985  -2.3437343748   0.0000000000
    H     1.5779041557   1.9450061275   0.0000000000
    H    -1.5779041557  -1.9450061275   0.0000000000
    C     2.8845844962  -0.5210893778   0.0000000000
    C    -2.8845844962   0.5210893778   0.0000000000
    H     3.1403356810  -1.5919605685   0.0000000000
    H    -3.1403356810   1.5919605685   0.0000000000
    C     3.8800428103   0.3822535424   0.0000000000
    C    -3.8800428103  -0.3822535424   0.0000000000
    H     3.6946765858   1.4624389570   0.0000000000
    H    -3.6946765858  -1.4624389570   0.0000000000
    H     4.9316453546   0.0711049543   0.0000000000
    H    -4.9316453546  -0.0711049543   0.0000000000
}

set {
    basis sto-3g
    reference uhf
    print_basis true
    print_mos true
}

scf_e, scf_wfn = energy('scf', return_wfn=True)
oeprop(scf_wfn, 'MULLIKEN_CHARGES', 'LOWDIN_CHARGES', 'MULTIPOLE(5)')
--------------------------------------------------------------------------

    Molecular point group: c2h

    Geometry (in Angstrom), charge = 1, multiplicity = 2:

       Center              X                  Y                   Z               Mass
    ------------   -----------------  -----------------  -----------------  -----------------
         C           -1.415253322400     0.230221785400     0.000000000000    12.000000000000
         C            1.415253322400    -0.230221785400     0.000000000000    12.000000000000
         C           -0.495133155800     1.314460867400     0.000000000000    12.000000000000
         C            0.495133155800    -1.314460867400     0.000000000000    12.000000000000
         C            0.889409043600     1.090949374300     0.000000000000    12.000000000000
         C           -0.889409043600    -1.090949374300     0.000000000000    12.000000000000
         H           -0.879551198500     2.343734374800     0.000000000000     1.007825032230
         H            0.879551198500    -2.343734374800     0.000000000000     1.007825032230
         H            1.577904155700     1.945006127500     0.000000000000     1.007825032230
         H           -1.577904155700    -1.945006127500     0.000000000000     1.007825032230
         C            2.884584496200    -0.521089377800     0.000000000000    12.000000000000
         C           -2.884584496200     0.521089377800     0.000000000000    12.000000000000
         H            3.140335681000    -1.591960568500     0.000000000000     1.007825032230
         H           -3.140335681000     1.591960568500     0.000000000000     1.007825032230
         C            3.880042810300     0.382253542400     0.000000000000    12.000000000000
         C           -3.880042810300    -0.382253542400     0.000000000000    12.000000000000
         H            3.694676585800     1.462438957000     0.000000000000     1.007825032230
         H           -3.694676585800    -1.462438957000     0.000000000000     1.007825032230
         H            4.931645354600     0.071104954300     0.000000000000     1.007825032230
         H           -4.931645354600    -0.071104954300     0.000000000000     1.007825032230

  Charge       = 1
  Multiplicity = 2
  Basis Set: STO-3G
    Blend: STO-3G
  Basis Set: (STO-3G AUX)
    Blend: DEF2-SVP-JKFIT

    Orbital Energies [Eh]
    ---------------------

    Alpha Occupied:

       1Bu   -11.308055     1Ag   -11.307991     2Bu   -11.265056
       2Ag   -11.264975     3Bu   -11.260013     3Ag   -11.259937
       4Bu   -11.221148     4Ag   -11.221147     5Bu   -11.216826
       5Ag   -11.216826     6Ag    -1.326104     6Bu    -1.237221
       7Ag    -1.170208     7Bu    -1.166026     8Bu    -1.131154
       8Ag    -1.011056     9Ag    -0.981985     9Bu    -0.911679
      10Ag    -0.900331    11Ag    -0.820658    10Bu    -0.807014
      11Bu    -0.778420    12Bu    -0.759938    12Ag    -0.735559
      13Bu    -0.735162    14Bu    -0.697112     1Au    -0.694793
      13Ag    -0.679960    14Ag    -0.636818    15Bu    -0.632301
      15Ag    -0.616393     1Bg    -0.596616     2Au    -0.531873
       2Bg    -0.491534     3Bg    -0.479073

    Alpha Virtual:

       3Au    -0.047716     4Au     0.062136     4Bg     0.131905
       5Au     0.208904     5Bg     0.297057    16Ag     0.369829
      16Bu     0.380850    17Bu     0.420251    17Ag     0.436264
      18Ag     0.453037    18Bu     0.454854    19Ag     0.483611
      19Bu     0.492585    20Bu     0.516714    20Ag     0.544304
      21Ag     0.584307    21Bu     0.610141    22Ag     0.649266
      22Bu     0.673884    23Bu     0.723529    23Ag     0.738219
      24Ag     0.787927    24Bu     0.821085    25Ag     0.884300
      25Bu     0.891454

    Beta Occupied:

       1Bu   -11.296271     1Ag   -11.296231     2Bu   -11.265562
       2Ag   -11.265491     3Bu   -11.261983     3Ag   -11.261921
       4Ag   -11.237282     4Bu   -11.237282     5Ag   -11.197105
       5Bu   -11.197105     6Ag    -1.308289     6Bu    -1.222404
       7Bu    -1.169684     7Ag    -1.165539     8Bu    -1.089861
       8Ag    -0.994178     9Ag    -0.966877     9Bu    -0.908138
      10Ag    -0.893228    11Ag    -0.819829    10Bu    -0.803838
      11Bu    -0.771323    12Bu    -0.753852    13Bu    -0.735360
      12Ag    -0.731593    14Bu    -0.691296    13Ag    -0.677172
       1Au    -0.644458    14Ag    -0.632379    15Bu    -0.628294
      15Ag    -0.614933     1Bg    -0.561338     2Bg    -0.502083
       2Au    -0.489149

    Beta Virtual:

       3Bg    -0.148799     3Au     0.074508     4Au     0.085216
       4Bg     0.176061     5Au     0.238926     5Bg     0.328713
      16Ag     0.367403    16Bu     0.382428    17Bu     0.413786
      17Ag     0.437243    18Bu     0.465636    18Ag     0.465820
      19Bu     0.489568    19Ag     0.494345    20Bu     0.539302
      20Ag     0.563132    21Ag     0.586454    21Bu     0.618792
      22Ag     0.649183    22Bu     0.675453    23Bu     0.730146
      23Ag     0.740119    24Ag     0.791599    24Bu     0.825618
      25Ag     0.889416    25Bu     0.896422

    Final Occupation by Irrep:
             Ag    Bg    Au    Bu
    DOCC [    15,    2,    2,   15 ]
    SOCC [     0,    1,    0,    0 ]

  @DF-UHF Final Energy:  -379.60025441595849

   => Energetics <=

    Nuclear Repulsion Energy =            445.9369798670570049
    One-Electron Energy =               -1385.7122173777272565
    Two-Electron Energy =                 560.1749830947117061
    Total Energy =                       -379.6002544159584886

  UHF NO Occupations:
  HONO-2 :    2 Bg 1.8968904
  HONO-1 :    2 Au 1.8076940
  HONO-0 :    3 Bg 1.0000000
  LUNO+0 :    3 Au 0.1923060
  LUNO+1 :    4 Bg 0.1031096
  LUNO+2 :    4 Au 0.0216687
  LUNO+3 :   16 Ag 0.0019222

Computation Completed

Properties will be evaluated at   0.000000,   0.000000,   0.000000 [a0]

Properties computed using the SCF density matrix

  Nuclear Dipole Moment: [e a0]
     X:     0.0000      Y:     0.0000      Z:     0.0000

  Electronic Dipole Moment: [e a0]
     X:     0.0000      Y:     0.0000      Z:     0.0000

  Dipole Moment: [e a0]
     X:     0.0000      Y:     0.0000      Z:     0.0000     Total:     0.0000

  Dipole Moment: [D]
     X:     0.0000      Y:     0.0000      Z:     0.0000     Total:     0.0000

  ==> Alpha-Spin Molecular Orbitals <==

                            1            2            3            4            5

 1    C1 s0         0.7015007    0.7015370    0.0010792    0.0003966    0.0010362
 2    C1 s0         0.0256586    0.0255375    0.0049186    0.0047823    0.0052017
 3    C1 p0         0.0000000    0.0000000    0.0000000    0.0000000    0.0000000
 4    C1 p+1        0.0009248    0.0006960    0.0011658    0.0012602    0.0021174
 5    C1 p-1       -0.0000586   -0.0000173   -0.0029297   -0.0029045    0.0022056
 6    C2 s0        -0.7015007    0.7015370   -0.0010792    0.0003966   -0.0010362
 7    C2 s0        -0.0256586    0.0255375   -0.0049186    0.0047823   -0.0052017
 8    C2 p0         0.0000000    0.0000000    0.0000000    0.0000000    0.0000000
 9    C2 p+1        0.0009248   -0.0006960    0.0011658   -0.0012602    0.0021174
 10   C2 p-1       -0.0000586    0.0000173   -0.0029297    0.0029045    0.0022056
 11   C3 s0         0.0015876    0.0009518    0.0224087   -0.0122793   -0.7012801
 12   C3 s0        -0.0050659   -0.0047809   -0.0042850    0.0043459   -0.0253604
 13   C3 p0         0.0000000    0.0000000    0.0000000    0.0000000    0.0000000
 14   C3 p+1        0.0020042    0.0020647   -0.0030031    0.0031323   -0.0004520
 15   C3 p-1        0.0025046    0.0025111    0.0005446   -0.0006043    0.0010306
 16   C4 s0        -0.0015876    0.0009518   -0.0224087   -0.0122793    0.7012801
 17   C4 s0         0.0050659   -0.0047809    0.0042850    0.0043459    0.0253604
 18   C4 p0         0.0000000    0.0000000    0.0000000    0.0000000    0.0000000
 19   C4 p+1        0.0020042   -0.0020647   -0.0030031   -0.0031323   -0.0004520
 20   C4 p-1        0.0025046   -0.0025111    0.0005446    0.0006043    0.0010306
 21   C5 s0        -0.0017015    0.0010356    0.7012810   -0.7015718    0.0218816
 22   C5 s0         0.0050335   -0.0047318    0.0251213   -0.0250616    0.0058741
 23   C5 p0         0.0000000    0.0000000    0.0000000    0.0000000    0.0000000
 24   C5 p+1        0.0010996   -0.0011677   -0.0005371    0.0004048   -0.0030595
 25   C5 p-1       -0.0029937    0.0030053   -0.0008613    0.0006107    0.0003727
 26   C6 s0         0.0017015    0.0010356   -0.7012810   -0.7015718   -0.0218816
 27   C6 s0        -0.0050335   -0.0047318   -0.0251213   -0.0250616   -0.0058741
 28   C6 p0         0.0000000    0.0000000    0.0000000    0.0000000    0.0000000
 29   C6 p+1        0.0010996    0.0011677   -0.0005371   -0.0004048   -0.0030595
 30   C6 p-1       -0.0029937   -0.0030053   -0.0008613   -0.0006107    0.0003727
 31   H7 s0         0.0000900   -0.0000087   -0.0000237    0.0000878    0.0045717
 32   H8 s0        -0.0000900   -0.0000087    0.0000237    0.0000878   -0.0045717
 33   H9 s0        -0.0000827   -0.0000137   -0.0046041    0.0046963   -0.0002662
 34   H10 s0        0.0000827   -0.0000137    0.0046041    0.0046963    0.0002662
 35   C11 s0        0.0005932   -0.0006226   -0.0001277    0.0002665   -0.0002390
 36   C11 s0        0.0041874   -0.0042429    0.0001747   -0.0000864    0.0001931
 37   C11 p0        0.0000000    0.0000000    0.0000000    0.0000000    0.0000000
 38   C11 p+1      -0.0028861    0.0029264   -0.0000794   -0.0000091   -0.0000354
 39   C11 p-1       0.0006133   -0.0006210    0.0000038   -0.0000317    0.0000665
 40   C12 s0       -0.0005932   -0.0006226    0.0001277    0.0002665    0.0002390
 41   C12 s0       -0.0041874   -0.0042429   -0.0001747   -0.0000864   -0.0001931
 42   C12 p0        0.0000000    0.0000000    0.0000000    0.0000000    0.0000000
 43   C12 p+1      -0.0028861   -0.0029264   -0.0000794    0.0000091   -0.0000354
 44   C12 p-1       0.0006133    0.0006210    0.0000038    0.0000317    0.0000665
 45   H13 s0       -0.0000300    0.0000349   -0.0000313    0.0000522   -0.0000566
 46   H14 s0        0.0000300    0.0000349    0.0000313    0.0000522    0.0000566
 47   C15 s0        0.0001017   -0.0000960   -0.0002374    0.0002519   -0.0000713
 48   C15 s0       -0.0001337    0.0001335   -0.0000582    0.0000737   -0.0000619
 49   C15 p0        0.0000000    0.0000000    0.0000000    0.0000000    0.0000000
 50   C15 p+1       0.0000691   -0.0000721    0.0000585   -0.0000656    0.0000396
 51   C15 p-1      -0.0000593    0.0000600   -0.0000427    0.0000347    0.0000081
 52   C16 s0       -0.0001017   -0.0000960    0.0002374    0.0002519    0.0000713
 53   C16 s0        0.0001337    0.0001335    0.0000582    0.0000737    0.0000619
 54   C16 p0        0.0000000    0.0000000    0.0000000    0.0000000    0.0000000
 55   C16 p+1       0.0000691    0.0000721    0.0000585    0.0000656    0.0000396
 56   C16 p-1      -0.0000593   -0.0000600   -0.0000427   -0.0000347    0.0000081
 57   H17 s0        0.0001040   -0.0000990    0.0001055   -0.0001078    0.0000154
 58   H18 s0       -0.0001040   -0.0000990   -0.0001055   -0.0001078   -0.0000154
 59   H19 s0        0.0000221   -0.0000216   -0.0000187    0.0000173   -0.0000015
 60   H20 s0       -0.0000221   -0.0000216    0.0000187    0.0000173    0.0000015

            Ene   -11.3080547  -11.3079910  -11.2650564  -11.2649746  -11.2600132
            Sym            Bu           Ag           Bu           Ag           Bu
            Occ             1            1            1            1            1

                            6            7            8            9           10

 1    C1 s0         0.0003005    0.0012768    0.0013137    0.0000165   -0.0000082
 2    C1 s0         0.0045939   -0.0040315   -0.0040211    0.0004711   -0.0004710
 3    C1 p0         0.0000000    0.0000000    0.0000000    0.0000000    0.0000000
 4    C1 p+1        0.0020825    0.0028479    0.0028285   -0.0002596    0.0002562
 5    C1 p-1        0.0024276   -0.0004310   -0.0004269    0.0000641   -0.0000634
 6    C2 s0         0.0003005   -0.0012768    0.0013137   -0.0000165   -0.0000082
 7    C2 s0         0.0045939    0.0040315   -0.0040211   -0.0004711   -0.0004710
 8    C2 p0         0.0000000    0.0000000    0.0000000    0.0000000    0.0000000
 9    C2 p+1       -0.0020825    0.0028479   -0.0028285   -0.0002596   -0.0002562
 10   C2 p-1       -0.0024276   -0.0004310    0.0004269    0.0000641    0.0000634
 11   C3 s0        -0.7015785    0.0002555    0.0004318    0.0000516   -0.0000975
 12   C3 s0        -0.0251372    0.0001482    0.0000642   -0.0000304    0.0000793
 13   C3 p0         0.0000000    0.0000000    0.0000000    0.0000000    0.0000000
 14   C3 p+1       -0.0003175    0.0000188   -0.0000347    0.0000603   -0.0000220
 15   C3 p-1        0.0007264   -0.0000297    0.0000332    0.0000126   -0.0000169
 16   C4 s0        -0.7015785   -0.0002555    0.0004318   -0.0000516   -0.0000975
 17   C4 s0        -0.0251372   -0.0001482    0.0000642    0.0000304    0.0000793
 18   C4 p0         0.0000000    0.0000000    0.0000000    0.0000000    0.0000000
 19   C4 p+1        0.0003175    0.0000188    0.0000347    0.0000603    0.0000220
 20   C4 p-1       -0.0007264   -0.0000297   -0.0000332    0.0000126    0.0000169
 21   C5 s0         0.0116692   -0.0001606    0.0003033   -0.0002490   -0.0002504
 22   C5 s0         0.0051929   -0.0001963    0.0001204    0.0000400    0.0000438
 23   C5 p0         0.0000000    0.0000000    0.0000000    0.0000000    0.0000000
 24   C5 p+1       -0.0031752    0.0000107    0.0000541    0.0000926    0.0000902
 25   C5 p-1        0.0003909    0.0000209    0.0000184   -0.0000089   -0.0000026
 26   C6 s0         0.0116692    0.0001606    0.0003033    0.0002490   -0.0002504
 27   C6 s0         0.0051929    0.0001963    0.0001204   -0.0000400    0.0000438
 28   C6 p0         0.0000000    0.0000000    0.0000000    0.0000000    0.0000000
 29   C6 p+1        0.0031752    0.0000107   -0.0000541    0.0000926   -0.0000902
 30   C6 p-1       -0.0003909    0.0000209   -0.0000184   -0.0000089    0.0000026
 31   H7 s0         0.0046578   -0.0000247   -0.0000356   -0.0000018    0.0000022
 32   H8 s0         0.0046578    0.0000247   -0.0000356    0.0000018    0.0000022
 33   H9 s0        -0.0000712    0.0001083   -0.0001214   -0.0000669   -0.0000687
 34   H10 s0       -0.0000712   -0.0001083   -0.0001214    0.0000669   -0.0000687
 35   C11 s0        0.0003841   -0.6999168    0.6999168    0.0518764    0.0518830
 36   C11 s0       -0.0000862   -0.0238424    0.0238349    0.0075369    0.0075364
 37   C11 p0        0.0000000    0.0000000    0.0000000    0.0000000    0.0000000
 38   C11 p+1      -0.0000282   -0.0003505    0.0003565    0.0025727    0.0025730
 39   C11 p-1      -0.0000132   -0.0005261    0.0005249    0.0023847    0.0023843
 40   C12 s0        0.0003841    0.6999168    0.6999168   -0.0518764    0.0518830
 41   C12 s0       -0.0000862    0.0238424    0.0238349   -0.0075369    0.0075364
 42   C12 p0        0.0000000    0.0000000    0.0000000    0.0000000    0.0000000
 43   C12 p+1       0.0000282   -0.0003505   -0.0003565    0.0025727   -0.0025730
 44   C12 p-1       0.0000132   -0.0005261   -0.0005249    0.0023847   -0.0023843
 45   H13 s0        0.0000619    0.0045203   -0.0045205   -0.0003963   -0.0003961
 46   H14 s0        0.0000619   -0.0045203   -0.0045205    0.0003963   -0.0003961
 47   C15 s0        0.0001117   -0.0523034    0.0523099   -0.6994899   -0.6994894
 48   C15 s0        0.0000534    0.0032560   -0.0032559   -0.0265610   -0.0265608
 49   C15 p0        0.0000000    0.0000000    0.0000000    0.0000000    0.0000000
 50   C15 p+1      -0.0000521   -0.0022445    0.0022445    0.0011559    0.0011557
 51   C15 p-1      -0.0000050   -0.0019616    0.0019620    0.0010113    0.0010113
 52   C16 s0        0.0001117    0.0523034    0.0523099    0.6994899   -0.6994894
 53   C16 s0        0.0000534   -0.0032560   -0.0032559    0.0265610   -0.0265608
 54   C16 p0        0.0000000    0.0000000    0.0000000    0.0000000    0.0000000
 55   C16 p+1       0.0000521   -0.0022445   -0.0022445    0.0011559   -0.0011557
 56   C16 p-1       0.0000050   -0.0019616   -0.0019620    0.0010113   -0.0010113
 57   H17 s0        0.0000135    0.0002961   -0.0002961    0.0048950    0.0048950
 58   H18 s0        0.0000135   -0.0002961   -0.0002961   -0.0048950    0.0048950
 59   H19 s0        0.0000073    0.0002870   -0.0002871    0.0048738    0.0048738
 60   H20 s0        0.0000073   -0.0002870   -0.0002871   -0.0048738    0.0048738

            Ene   -11.2599371  -11.2211478  -11.2211473  -11.2168265  -11.2168263
            Sym            Ag           Bu           Ag           Bu           Ag
            Occ             1            1            1            1            1

                           11           12           13           14           15

 1    C1 s0         0.1147351    0.1292491    0.0122225    0.0129714    0.0759126
 2    C1 s0        -0.3078723   -0.3626951   -0.0395766   -0.0375824   -0.2187901
 3    C1 p0         0.0000000    0.0000000    0.0000000    0.0000000    0.0000000
 4    C1 p+1       -0.0536529    0.0081287    0.0983520   -0.0270436   -0.0762280
 5    C1 p-1        0.0091060    0.0032484   -0.0073513   -0.1400377    0.0231922
 6    C2 s0         0.1147351   -0.1292491    0.0122225   -0.0129714   -0.0759126
 7    C2 s0        -0.3078723    0.3626951   -0.0395766    0.0375824    0.2187901
 8    C2 p0         0.0000000    0.0000000    0.0000000    0.0000000    0.0000000
 9    C2 p+1        0.0536529    0.0081287   -0.0983520   -0.0270436   -0.0762280
 10   C2 p-1       -0.0091060    0.0032484    0.0073513   -0.1400377    0.0231922
 11   C3 s0         0.0947336    0.0476098   -0.0376593    0.1308508    0.0285609
 12   C3 s0        -0.2369236   -0.1233591    0.1003198   -0.3560062   -0.0775620
 13   C3 p0         0.0000000    0.0000000    0.0000000    0.0000000    0.0000000
 14   C3 p+1       -0.0122530    0.0726290    0.0337483   -0.0568464    0.0717449
 15   C3 p-1        0.0612838    0.0421650   -0.0151367    0.0151046    0.0356168
 16   C4 s0         0.0947336   -0.0476098   -0.0376593   -0.1308508   -0.0285609
 17   C4 s0        -0.2369236    0.1233591    0.1003198    0.3560062    0.0775620
 18   C4 p0         0.0000000    0.0000000    0.0000000    0.0000000    0.0000000
 19   C4 p+1        0.0122530    0.0726290   -0.0337483   -0.0568464    0.0717449
 20   C4 p-1       -0.0612838    0.0421650    0.0151367    0.0151046    0.0356168
 21   C5 s0         0.0961637   -0.0559370   -0.0320021    0.1204582   -0.0594109
 22   C5 s0        -0.2425513    0.1465714    0.0851382   -0.3304869    0.1635124
 23   C5 p0         0.0000000    0.0000000    0.0000000    0.0000000    0.0000000
 24   C5 p+1        0.0303496    0.0540346   -0.0457190    0.0707768    0.0308933
 25   C5 p-1        0.0550752   -0.0635554   -0.0011096   -0.0191185   -0.0504648
 26   C6 s0         0.0961637    0.0559370   -0.0320021   -0.1204582    0.0594109
 27   C6 s0        -0.2425513   -0.1465714    0.0851382    0.3304869   -0.1635124
 28   C6 p0         0.0000000    0.0000000    0.0000000    0.0000000    0.0000000
 29   C6 p+1       -0.0303496    0.0540346    0.0457190    0.0707768    0.0308933
 30   C6 p-1       -0.0550752   -0.0635554    0.0011096   -0.0191185   -0.0504648
 31   H7 s0        -0.0362887   -0.0274261    0.0175684   -0.0858635   -0.0186466
 32   H8 s0        -0.0362887    0.0274261    0.0175684    0.0858635    0.0186466
 33   H9 s0        -0.0374646    0.0332127    0.0106862   -0.0805773    0.0370632
 34   H10 s0       -0.0374646   -0.0332127    0.0106862    0.0805773   -0.0370632
 35   C11 s0        0.0360644   -0.0867620    0.1110771    0.0011964    0.0723735
 36   C11 s0       -0.0861001    0.2132568   -0.2790594   -0.0024634   -0.1832736
 37   C11 p0        0.0000000    0.0000000    0.0000000    0.0000000    0.0000000
 38   C11 p+1       0.0288911   -0.0263747   -0.0543991   -0.0159405   -0.1098088
 39   C11 p-1      -0.0118105    0.0336900   -0.0594863   -0.0181702   -0.0540797
 40   C12 s0        0.0360644    0.0867620    0.1110771   -0.0011964   -0.0723735
 41   C12 s0       -0.0861001   -0.2132568   -0.2790594    0.0024634    0.1832736
 42   C12 p0        0.0000000    0.0000000    0.0000000    0.0000000    0.0000000
 43   C12 p+1      -0.0288911   -0.0263747    0.0543991   -0.0159405   -0.1098088
 44   C12 p-1       0.0118105    0.0336900    0.0594863   -0.0181702   -0.0540797
 45   H13 s0       -0.0158724    0.0451385   -0.0653641    0.0065820   -0.0459831
 46   H14 s0       -0.0158724   -0.0451385   -0.0653641   -0.0065820    0.0459831
 47   C15 s0        0.0169424   -0.0618559    0.1285208    0.0140044    0.1288495
 48   C15 s0       -0.0459460    0.1705125   -0.3608531   -0.0388889   -0.3666289
 49   C15 p0        0.0000000    0.0000000    0.0000000    0.0000000    0.0000000
 50   C15 p+1       0.0152677   -0.0432038    0.0627388    0.0072854    0.0429880
 51   C15 p-1       0.0089697   -0.0286293    0.0504143    0.0005096    0.0434954
 52   C16 s0        0.0169424    0.0618559    0.1285208   -0.0140044   -0.1288495
 53   C16 s0       -0.0459460   -0.1705125   -0.3608531    0.0388889    0.3666289
 54   C16 p0        0.0000000    0.0000000    0.0000000    0.0000000    0.0000000
 55   C16 p+1      -0.0152677   -0.0432038   -0.0627388    0.0072854    0.0429880
 56   C16 p-1      -0.0089697   -0.0286293   -0.0504143    0.0005096    0.0434954
 57   H17 s0       -0.0076273    0.0314763   -0.0722802   -0.0105534   -0.0774168
 58   H18 s0       -0.0076273   -0.0314763   -0.0722802    0.0105534    0.0774168
 59   H19 s0       -0.0052317    0.0256735   -0.0676256   -0.0067711   -0.0784859
 60   H20 s0       -0.0052317   -0.0256735   -0.0676256    0.0067711    0.0784859

            Ene    -1.3261037   -1.2372211   -1.1702083   -1.1660259   -1.1311540
            Sym            Ag           Bu           Ag           Bu           Bu
            Occ             1            1            1            1            1

                           16           17           18           19           20

 1    C1 s0         0.0812314    0.0524352    0.0010632    0.0362931    0.0331504
 2    C1 s0        -0.2531118   -0.1647997    0.0020558   -0.1122074   -0.1154055
 3    C1 p0         0.0000000    0.0000000    0.0000000    0.0000000    0.0000000
 4    C1 p+1        0.0774939    0.0727277   -0.1902632   -0.1920207    0.1008745
 5    C1 p-1       -0.1369304    0.2112735    0.0708223    0.0029610   -0.0452612
 6    C2 s0         0.0812314    0.0524352   -0.0010632    0.0362931    0.0331504
 7    C2 s0        -0.2531118   -0.1647997   -0.0020558   -0.1122074   -0.1154055
 8    C2 p0         0.0000000    0.0000000    0.0000000    0.0000000    0.0000000
 9    C2 p+1       -0.0774939   -0.0727277   -0.1902632    0.1920207   -0.1008745
 10   C2 p-1        0.1369304   -0.2112735    0.0708223   -0.0029610    0.0452612
 11   C3 s0        -0.0023255   -0.1131763    0.0486185   -0.0154145    0.0127853
 12   C3 s0         0.0064457    0.3368587   -0.1509677    0.0551010   -0.0494155
 13   C3 p0         0.0000000    0.0000000    0.0000000    0.0000000    0.0000000
 14   C3 p+1        0.1825926   -0.0346789   -0.0026858    0.0566983    0.1499180
 15   C3 p-1        0.0397791    0.0555057    0.0100954    0.1919139   -0.1198786
 16   C4 s0        -0.0023255   -0.1131763   -0.0486185   -0.0154145    0.0127853
 17   C4 s0         0.0064457    0.3368587    0.1509677    0.0551010   -0.0494155
 18   C4 p0         0.0000000    0.0000000    0.0000000    0.0000000    0.0000000
 19   C4 p+1       -0.1825926    0.0346789   -0.0026858   -0.0566983   -0.1499180
 20   C4 p-1       -0.0397791   -0.0555057    0.0100954   -0.1919139    0.1198786
 21   C5 s0        -0.0916805    0.0546149   -0.0310616   -0.0449578   -0.0155065
 22   C5 s0         0.2689409   -0.1630765    0.0963401    0.1490032    0.0444365
 23   C5 p0         0.0000000    0.0000000    0.0000000    0.0000000    0.0000000
 24   C5 p+1       -0.0395390   -0.1800967    0.0824117    0.0467133   -0.1456292
 25   C5 p-1        0.0679351    0.0917836   -0.0433934    0.2001494   -0.0741688
 26   C6 s0        -0.0916805    0.0546149    0.0310616   -0.0449578   -0.0155065
 27   C6 s0         0.2689409   -0.1630765   -0.0963401    0.1490032    0.0444365
 28   C6 p0         0.0000000    0.0000000    0.0000000    0.0000000    0.0000000
 29   C6 p+1        0.0395390    0.1800967    0.0824117   -0.0467133    0.1456292
 30   C6 p-1       -0.0679351   -0.0917836   -0.0433934   -0.2001494    0.0741688
 31   H7 s0        -0.0111638    0.1501581   -0.0462434    0.1155681   -0.1230831
 32   H8 s0        -0.0111638    0.1501581    0.0462434    0.1155681   -0.1230831
 33   H9 s0         0.1070560   -0.0765870    0.0514462    0.1611943   -0.0879237
 34   H10 s0        0.1070560   -0.0765870   -0.0514462    0.1611943   -0.0879237
 35   C11 s0        0.0435826    0.0042381    0.1010705   -0.0610664   -0.0588999
 36   C11 s0       -0.1255710   -0.0134618   -0.3024999    0.1824341    0.1848890
 37   C11 p0        0.0000000    0.0000000    0.0000000    0.0000000    0.0000000
 38   C11 p+1       0.1251036    0.0721608    0.0682721   -0.0412539    0.1586498
 39   C11 p-1       0.0601040   -0.0301572    0.1000440   -0.0570653   -0.1116592
 40   C12 s0        0.0435826    0.0042381   -0.1010705   -0.0610664   -0.0588999
 41   C12 s0       -0.1255710   -0.0134618    0.3024999    0.1824341    0.1848890
 42   C12 p0        0.0000000    0.0000000    0.0000000    0.0000000    0.0000000
 43   C12 p+1      -0.1251036   -0.0721608    0.0682721    0.0412539   -0.1586498
 44   C12 p-1      -0.0601040    0.0301572    0.1000440    0.0570653    0.1116592
 45   H13 s0       -0.0601786    0.0243577   -0.1674257    0.1046696    0.1780014
 46   H14 s0       -0.0601786    0.0243577    0.1674257    0.1046696    0.1780014
 47   C15 s0       -0.0713082   -0.0388666   -0.0770992    0.0537279    0.0272252
 48   C15 s0        0.2137236    0.1195599    0.2481829   -0.1741583   -0.1001133
 49   C15 p0        0.0000000    0.0000000    0.0000000    0.0000000    0.0000000
 50   C15 p+1       0.0211067    0.0313916    0.0898309   -0.0740083   -0.0314460
 51   C15 p-1       0.0192526   -0.0120974    0.1108454   -0.0601952   -0.2207330
 52   C16 s0       -0.0713082   -0.0388666    0.0770992    0.0537279    0.0272252
 53   C16 s0        0.2137236    0.1195599   -0.2481829   -0.1741583   -0.1001133
 54   C16 p0        0.0000000    0.0000000    0.0000000    0.0000000    0.0000000
 55   C16 p+1      -0.0211067   -0.0313916    0.0898309    0.0740083    0.0314460
 56   C16 p-1      -0.0192526    0.0120974    0.1108454    0.0601952    0.2207330
 57   H17 s0        0.0712069    0.0235385    0.1341352   -0.0782801   -0.1734483
 58   H18 s0        0.0712069    0.0235385   -0.1341352   -0.0782801   -0.1734483
 59   H19 s0        0.0667281    0.0496557    0.1065322   -0.0836809   -0.0156604
 60   H20 s0        0.0667281    0.0496557   -0.1065322   -0.0836809   -0.0156604

            Ene    -1.0110564   -0.9819846   -0.9116787   -0.9003305   -0.8206575
            Sym            Ag           Ag           Bu           Ag           Ag
            Occ             1            1            1            1            1

                           21           22           23           24           25

 1    C1 s0         0.0224220    0.0643072    0.0038033    0.0149402    0.0008409
 2    C1 s0        -0.0819816   -0.2289583   -0.0106021   -0.0506381   -0.0019576
 3    C1 p0         0.0000000    0.0000000    0.0000000    0.0000000    0.0000000
 4    C1 p+1        0.1403293   -0.0585549   -0.1759691   -0.0281440   -0.1210827
 5    C1 p-1        0.2201926   -0.0891762    0.2186243   -0.0197853   -0.0474535
 6    C2 s0        -0.0224220   -0.0643072   -0.0038033    0.0149402   -0.0008409
 7    C2 s0         0.0819816    0.2289583    0.0106021   -0.0506381    0.0019576
 8    C2 p0         0.0000000    0.0000000    0.0000000    0.0000000    0.0000000
 9    C2 p+1        0.1403293   -0.0585549   -0.1759691    0.0281440   -0.1210827
 10   C2 p-1        0.2201926   -0.0891762    0.2186243    0.0197853   -0.0474535
 11   C3 s0        -0.0179352   -0.0509572    0.0020224   -0.0209846    0.0196925
 12   C3 s0         0.0618192    0.1780003   -0.0059842    0.0718552   -0.0591540
 13   C3 p0         0.0000000    0.0000000    0.0000000    0.0000000    0.0000000
 14   C3 p+1       -0.2497374    0.0463714   -0.0604729    0.0868649   -0.1644446
 15   C3 p-1       -0.0179842    0.2377803   -0.0674834    0.0051955    0.3046625
 16   C4 s0         0.0179352    0.0509572   -0.0020224   -0.0209846   -0.0196925
 17   C4 s0        -0.0618192   -0.1780003    0.0059842    0.0718552    0.0591540
 18   C4 p0         0.0000000    0.0000000    0.0000000    0.0000000    0.0000000
 19   C4 p+1       -0.2497374    0.0463714   -0.0604729   -0.0868649   -0.1644446
 20   C4 p-1       -0.0179842    0.2377803   -0.0674834   -0.0051955    0.3046625
 21   C5 s0         0.0362370    0.0473075   -0.0170243    0.0165367    0.0104262
 22   C5 s0        -0.1205840   -0.1674399    0.0528408   -0.0622250   -0.0312644
 23   C5 p0         0.0000000    0.0000000    0.0000000    0.0000000    0.0000000

 Dipole X            :          0.0000000            0.0000000            0.0000000
 Dipole Y            :          0.0000000            0.0000000            0.0000000
 Dipole Z            :          0.0000000            0.0000000            0.0000000

  Lowdin Charges: (a.u.)
   Center  Symbol    Alpha    Beta     Spin     Total
       1     C     3.15962  2.71703  0.44259  0.12336
       2     C     3.15962  2.71703  0.44259  0.12336
       3     C     2.96251  3.02131 -0.05879  0.01618
       4     C     2.96251  3.02131 -0.05879  0.01618
       5     C     2.98681  2.99083 -0.00402  0.02236
       6     C     2.98681  2.99083 -0.00402  0.02236
       7     H     0.46435  0.46115  0.00320  0.07450
       8     H     0.46435  0.46115  0.00320  0.07450
       9     H     0.46289  0.46277  0.00011  0.07434
      10     H     0.46289  0.46277  0.00011  0.07434
      11     C     2.71009  3.28770 -0.57760  0.00221
      12     C     2.71009  3.28770 -0.57760  0.00221
      13     H     0.48737  0.45253  0.03484  0.06009
      14     H     0.48737  0.45253  0.03484  0.06009
      15     C     3.37516  2.62576  0.74940 -0.00092
      16     C     3.37516  2.62576  0.74940 -0.00092
      17     H     0.45018  0.49434 -0.04416  0.05548
      18     H     0.45018  0.49434 -0.04416  0.05548
      19     H     0.44102  0.48658 -0.04556  0.07240
      20     H     0.44102  0.48658 -0.04556  0.07240

  Total alpha = 35.00000, Total beta = 34.00000, Total charge =  1.00000

*** Psi4 exiting successfully. Buy a developer a beer!
