                               Psi4 1.3.1 release

  ==> Input File <==

--------------------------------------------------------------------------
molecule dvb {
    0 1
    C    -1.4152533224   0.2302217854   0.0000000000
    C     1.4152533224  -0.2302217854   0.0000000000
    C    -0.4951331558   1.3144608674   0.0000000000
    C     0.4951331558  -1.3144608674   0.0000000000
    C     0.8894090436   1.0909493743   0.0000000000
    C    -0.8894090436  -1.0909493743   0.0000000000
    H    -0.8795511985   2.3437343748   0.0000000000
    H     0.8795511985  -2.3437343748   0.0000000000
    H     1.5779041557   1.9450061275   0.0000000000
    H    -1.5779041557  -1.9450061275   0.0000000000
    C     2.8845844962  -0.5210893778   0.0000000000
    C    -2.8845844962   0.5210893778   0.0000000000
    H     3.1403356810  -1.5919605685   0.0000000000
    H    -3.1403356810   1.5919605685   0.0000000000
    C     3.8800428103   0.3822535424   0.0000000000
    C    -3.8800428103  -0.3822535424   0.0000000000
    H     3.6946765858   1.4624389570   0.0000000000
    H    -3.6946765858  -1.4624389570   0.0000000000
    H     4.9316453546   0.0711049543   0.0000000000
    H    -4.9316453546  -0.0711049543   0.0000000000
}

set {
    basis sto-3g
    print_basis true
    print_mos true
}

b3lyp_e, b3lyp_wfn = energy('b3lyp', return_wfn=True)
oeprop(b3lyp_wfn, 'MULLIKEN_CHARGES', 'LOWDIN_CHARGES', 'MULTIPOLES(5)')
--------------------------------------------------------------------------

    Molecular point group: c2h

    Geometry (in Angstrom), charge = 0, multiplicity = 1:

       Center              X                  Y                   Z               Mass
    ------------   -----------------  -----------------  -----------------  -----------------
         C           -1.415253322400     0.230221785400     0.000000000000    12.000000000000
         C            1.415253322400    -0.230221785400     0.000000000000    12.000000000000
         C           -0.495133155800     1.314460867400     0.000000000000    12.000000000000
         C            0.495133155800    -1.314460867400     0.000000000000    12.000000000000
         C            0.889409043600     1.090949374300     0.000000000000    12.000000000000
         C           -0.889409043600    -1.090949374300     0.000000000000    12.000000000000
         H           -0.879551198500     2.343734374800     0.000000000000     1.007825032230
         H            0.879551198500    -2.343734374800     0.000000000000     1.007825032230
         H            1.577904155700     1.945006127500     0.000000000000     1.007825032230
         H           -1.577904155700    -1.945006127500     0.000000000000     1.007825032230
         C            2.884584496200    -0.521089377800     0.000000000000    12.000000000000
         C           -2.884584496200     0.521089377800     0.000000000000    12.000000000000
         H            3.140335681000    -1.591960568500     0.000000000000     1.007825032230
         H           -3.140335681000     1.591960568500     0.000000000000     1.007825032230
         C            3.880042810300     0.382253542400     0.000000000000    12.000000000000
         C           -3.880042810300    -0.382253542400     0.000000000000    12.000000000000
         H            3.694676585800     1.462438957000     0.000000000000     1.007825032230
         H           -3.694676585800    -1.462438957000     0.000000000000     1.007825032230
         H            4.931645354600     0.071104954300     0.000000000000     1.007825032230
         H           -4.931645354600    -0.071104954300     0.000000000000     1.007825032230

  Charge       = 0
  Multiplicity = 1
  Basis Set: STO-3G
    Blend: STO-3G
  Basis Set: (STO-3G AUX)
    Blend: DEF2-SVP-JKFIT

    Orbital Energies [Eh]
    ---------------------

    Doubly Occupied:

       1Bu   -10.020496     1Ag   -10.020447     2Bu   -10.008209
       2Ag   -10.008208     3Ag   -10.007158     3Bu   -10.007156
       4Bu   -10.006509     4Ag   -10.006367     5Bu    -9.992434
       5Ag    -9.992434     6Ag    -0.809491     6Bu    -0.753966
       7Ag    -0.717890     7Bu    -0.699952     8Bu    -0.667344
       8Ag    -0.588534     9Ag    -0.559172     9Bu    -0.531444
      10Ag    -0.509951    11Ag    -0.457610    10Bu    -0.439212
      11Bu    -0.411038    12Bu    -0.397709    12Ag    -0.395953
      13Bu    -0.374446    14Bu    -0.350954    13Ag    -0.347031
       1Au    -0.324484    15Bu    -0.311084    14Ag    -0.293008
      15Ag    -0.287520     1Bg    -0.263470     2Au    -0.212353
       2Bg    -0.195182     3Bg    -0.153010

  @DF-RKS Final Energy:  -382.31092249631331

   => Energetics <=

    Nuclear Repulsion Energy =            445.9369798670570049
    One-Electron Energy =               -1400.6438116794788584
    Two-Electron Energy =                 619.1799693518544245
    DFT Exchange-Correlation Energy =     -46.7840600357459167
    Empirical Dispersion Energy =           0.0000000000000000
    VV10 Nonlocal Energy =                  0.0000000000000000
    Total Energy =                       -382.3109224963133101

  Dipole Moment: [D]
     X:     0.0000      Y:     0.0000      Z:     0.0000     Total:     0.0000

 Dipole X            :          0.0000000            0.0000000            0.0000000
 Dipole Y            :          0.0000000            0.0000000            0.0000000
 Dipole Z            :          0.0000000            0.0000000            0.0000000

  Lowdin Charges: (a.u.)
   Center  Symbol    Alpha    Beta     Spin     Total
       1     C     2.99813  2.99813  0.00000  0.00375
       2     C     2.99813  2.99813  0.00000  0.00375
       3     C     3.02196  3.02196  0.00000 -0.04391
       4     C     3.02196  3.02196  0.00000 -0.04391
       5     C     3.02210  3.02210  0.00000 -0.04419
       6     C     3.02210  3.02210  0.00000 -0.04419
       7     H     0.47890  0.47890  0.00000  0.04220
       8     H     0.47890  0.47890  0.00000  0.04220
       9     H     0.47813  0.47813  0.00000  0.04373
      10     H     0.47813  0.47813  0.00000  0.04373
      11     C     3.01949  3.01949  0.00000 -0.03898
      12     C     3.01949  3.01949  0.00000 -0.03898
      13     H     0.47949  0.47949  0.00000  0.04102
      14     H     0.47949  0.47949  0.00000  0.04102
      15     C     3.04583  3.04583  0.00000 -0.09166
      16     C     3.04583  3.04583  0.00000 -0.09166
      17     H     0.47849  0.47849  0.00000  0.04302
      18     H     0.47849  0.47849  0.00000  0.04302
      19     H     0.47749  0.47749  0.00000  0.04502
      20     H     0.47749  0.47749  0.00000  0.04502

  Total alpha = 35.00000, Total beta = 35.00000, Total charge =  0.00000

*** Psi4 exiting successfully. Buy a developer a beer!
