                               Psi4 1.3.1 release

  ==> Input File <==

--------------------------------------------------------------------------
molecule water {
0 1
O
H 1 0.99
H 1 0.99 2 106.0
}

set {
    basis sto-3g
}

energy('mp2')
--------------------------------------------------------------------------

    Molecular point group: c2v

    Geometry (in Angstrom), charge = 0, multiplicity = 1:

       Center              X                  Y                   Z               Mass
    ------------   -----------------  -----------------  -----------------  -----------------
         O            0.000000000000     0.000000000000    -0.066678531538    15.994914619570
         H            0.000000000000    -0.790649154947     0.529118341382     1.007825032230
         H            0.000000000000     0.790649154947     0.529118341382     1.007825032230

  Charge       = 0
  Multiplicity = 1
  Basis Set: STO-3G
    Blend: STO-3G
  Basis Set: (STO-3G AUX)
    Blend: DEF2-SVP-JKFIT

    Orbital Energies [Eh]
    ---------------------

    Doubly Occupied:

       1A1   -20.243976     2A1    -1.250662     1B2    -0.603166
       3A1    -0.445470     1B1    -0.388215

  @DF-RHF Final Energy:   -74.96441713226380

   => Energetics <=

    Nuclear Repulsion Energy =              8.8870062608098763
    One-Electron Energy =                -121.8398687279089074
    Two-Electron Energy =                  37.9884453348352409
    Total Energy =                        -74.9644171322638044

  Dipole Moment: [D]
     X:     0.0000      Y:     0.0000      Z:     1.6732     Total:     1.6732

  Basis Set: (STO-3G AUX)
    Blend: DEF2-QZVPP-RI
	 Reference Energy          =     -74.9644171322638044 [Eh]
	 Singles Energy            =      -0.0000000000000000 [Eh]
	 Same-Spin Energy          =      -0.0021865372227280 [Eh]
	 Opposite-Spin Energy      =      -0.0358629198241777 [Eh]
	 Correlation Energy        =      -0.0380494570469056 [Eh]
	 Total Energy              =     -75.0024665893107141 [Eh]

	 ================> DF-SCS-MP2 Energies <==================
	-----------------------------------------------------------
	 SCS Same-Spin Scale       =       0.3333333333333333 [-]
	 SCS Opposite-Spin Scale   =       1.2000000000000000 [-]
	 SCS Same-Spin Energy      =      -0.0007288457409093 [Eh]
	 SCS Opposite-Spin Energy  =      -0.0430355037890132 [Eh]
	 SCS Correlation Energy    =      -0.0437643495299225 [Eh]
	 SCS Total Energy          =     -75.0081814817937271 [Eh]
	-----------------------------------------------------------

*** Psi4 exiting successfully. Buy a developer a beer!
