 Gaussian 16, Revision A.03,
 Gaussian 16:  ES64L-G16RevA.03 25-Dec-2016

 ---------------------------------
 #p b3lyp/sto-3g Scan geom=nocrowd
 ---------------------------------

 -----------------
 DVB scan dihedral
 -----------------
 Symbolic Z-matrix:
 Charge =  0 Multiplicity = 1

 SCF Done:  E(RB3LYP) =  -382.294279146     A.U. after   12 cycles

 The electronic state is 1-AG.
 Alpha  occ. eigenvalues --  -10.01922 -10.01915 -10.00733 -10.00728 -10.00558
 Alpha  occ. eigenvalues --  -10.00557 -10.00551 -10.00540  -9.98966  -9.98966
 Alpha  occ. eigenvalues --   -0.82796  -0.76365  -0.72060  -0.70924  -0.67032
 Alpha  occ. eigenvalues --   -0.59492  -0.56528  -0.53402  -0.51553  -0.46363
 Alpha  occ. eigenvalues --   -0.44625  -0.41365  -0.40271  -0.39710  -0.37822
 Alpha  occ. eigenvalues --   -0.35387  -0.34850  -0.33887  -0.31250  -0.29779
 Alpha  occ. eigenvalues --   -0.28751  -0.27004  -0.21230  -0.19997  -0.15689
 Alpha virt. eigenvalues --    0.04399   0.09120   0.11237   0.18909   0.29009
 Alpha virt. eigenvalues --    0.33877   0.33892   0.37885   0.38932   0.41782
 Alpha virt. eigenvalues --    0.42010   0.43101   0.46747   0.48492   0.50818

 Mulliken charges:
               1
     1  C   -0.008796
     2  C   -0.073040
     3  C   -0.079486
     4  C   -0.008796
     5  C   -0.073040
     6  H    0.079662
     7  H    0.080206
     8  H    0.079662
     9  C   -0.073653
    10  C   -0.159266
    11  H    0.075048
    12  H    0.076174
    13  H    0.083151
    14  C   -0.073653
    15  H    0.076174
    16  C   -0.159266
    17  H    0.075048
    18  H    0.083151
    19  C   -0.079486
    20  H    0.080206
 Sum of Mulliken charges =   0.00000

 Dipole moment (field-independent basis, Debye):
    X=              0.0000    Y=             -0.0000    Z=              0.0000  Tot=              0.0000
 Quadrupole moment (field-independent basis, Debye-Ang):
   XX=            -50.9325   YY=            -50.9238   ZZ=            -58.4697
   XY=             -0.6223   XZ=              0.0000   YZ=              0.0000

 SCF Done:  E(RB3LYP) =  -382.282565244     A.U. after   14 cycles
 SCF Done:  E(RB3LYP) =  -382.239327009     A.U. after   15 cycles
 SCF Done:  E(RB3LYP) =  -382.162761119     A.U. after   15 cycles
 SCF Done:  E(RB3LYP) =  -382.076210874     A.U. after   16 cycles
 SCF Done:  E(RB3LYP) =  -381.546350810     A.U. after   15 cycles
 SCF Done:  E(RB3LYP) =  -378.377011955     A.U. after   15 cycles
 SCF Done:  E(RB3LYP) =  -381.546350810     A.U. after   15 cycles
 SCF Done:  E(RB3LYP) =  -382.076210874     A.U. after   15 cycles
 SCF Done:  E(RB3LYP) =  -382.162761119     A.U. after   16 cycles
 SCF Done:  E(RB3LYP) =  -382.239327009     A.U. after   15 cycles
 SCF Done:  E(RB3LYP) =  -382.282565244     A.U. after   14 cycles

                         Standard orientation:
 ---------------------------------------------------------------------
 Center     Atomic      Atomic             Coordinates (Angstroms)
 Number     Number       Type             X           Y           Z
 ---------------------------------------------------------------------
      1          6           0        1.205666    0.676891    0.000000
      2          6           0        0.002200    1.375535    0.000000
      3          6           0       -1.205666    0.689286    0.000000
      4          6           0       -1.205666   -0.676891    0.000000
      5          6           0       -0.002200   -1.375535    0.000000
      6          1           0        0.006730    2.470443    0.000000
      7          1           0       -2.150459    1.244759    0.000000
      8          1           0       -0.006730   -2.470443    0.000000
      9          6           0       -2.492798   -1.419218    0.000000
     10          6           0       -2.577785   -2.759452    0.000000
     11          1           0       -1.654345   -3.363669    0.000000
     12          1           0       -3.397785   -0.796919    0.000000
     13          1           0       -3.516212   -3.273509    0.000000
     14          6           0        2.492798    1.419218    0.000000
     15          1           0        3.397785    0.796919    0.000000
     16          6           0        2.577785    2.759452    0.000000
     17          1           0        1.654345    3.363669    0.000000
     18          1           0        3.516212    3.273509    0.000000
     19          6           0        1.205666   -0.689286    0.000000
     20          1           0        2.150459   -1.244759    0.000000
 ---------------------------------------------------------------------

 SCF Done:  E(RB3LYP) =  -382.294279146     A.U. after   12 cycles
 Normal termination of Gaussian 16 at Thu May 28 01:23:35 2020.
